+ 0.1 2 3 cbr 1000 ------- 2 2.0 3.0 0 0
- 0.1 2 3 cbr 1000 ------- 2 2.0 3.0 0 0
+ 0.101143 2 3 cbr 1000 ------- 2 2.0 3.0 1 1
- 0.101143 2 3 cbr 1000 ------- 2 2.0 3.0 1 1
+ 0.102286 2 3 cbr 1000 ------- 2 2.0 3.0 2 2
- 0.102286 2 3 cbr 1000 ------- 2 2.0 3.0 2 2
+ 0.103429 2 3 cbr 1000 ------- 2 2.0 3.0 3 3
- 0.103429 2 3 cbr 1000 ------- 2 2.0 3.0 3 3
+ 0.104571 2 3 cbr 1000 ------- 2 2.0 3.0 4 4
- 0.104571 2 3 cbr 1000 ------- 2 2.0 3.0 4 4
+ 0.105714 2 3 cbr 1000 ------- 2 2.0 3.0 5 5
- 0.105714 2 3 cbr 1000 ------- 2 2.0 3.0 5 5
+ 0.106857 2 3 cbr 1000 ------- 2 2.0 3.0 6 6
- 0.106857 2 3 cbr 1000 ------- 2 2.0 3.0 6 6
+ 0.108 2 3 cbr 1000 ------- 2 2.0 3.0 7 7
- 0.108 2 3 cbr 1000 ------- 2 2.0 3.0 7 7
+ 0.109143 2 3 cbr 1000 ------- 2 2.0 3.0 8 8
- 0.109143 2 3 cbr 1000 ------- 2 2.0 3.0 8 8
+ 0.110286 2 3 cbr 1000 ------- 2 2.0 3.0 9 9
- 0.110286 2 3 cbr 1000 ------- 2 2.0 3.0 9 9
r 0.1108 2 3 cbr 1000 ------- 2 2.0 3.0 0 0
+ 0.111429 2 3 cbr 1000 ------- 2 2.0 3.0 10 10
- 0.111429 2 3 cbr 1000 ------- 2 2.0 3.0 10 10
r 0.111943 2 3 cbr 1000 ------- 2 2.0 3.0 1 1
+ 0.112571 2 3 cbr 1000 ------- 2 2.0 3.0 11 11
- 0.112571 2 3 cbr 1000 ------- 2 2.0 3.0 11 11
r 0.113086 2 3 cbr 1000 ------- 2 2.0 3.0 2 2
+ 0.113714 2 3 cbr 1000 ------- 2 2.0 3.0 12 12
- 0.113714 2 3 cbr 1000 ------- 2 2.0 3.0 12 12
r 0.114229 2 3 cbr 1000 ------- 2 2.0 3.0 3 3
+ 0.114857 2 3 cbr 1000 ------- 2 2.0 3.0 13 13
- 0.114857 2 3 cbr 1000 ------- 2 2.0 3.0 13 13
r 0.115371 2 3 cbr 1000 ------- 2 2.0 3.0 4 4
+ 0.116 2 3 cbr 1000 ------- 2 2.0 3.0 14 14
- 0.116 2 3 cbr 1000 ------- 2 2.0 3.0 14 14
r 0.116514 2 3 cbr 1000 ------- 2 2.0 3.0 5 5
+ 0.117143 2 3 cbr 1000 ------- 2 2.0 3.0 15 15
- 0.117143 2 3 cbr 1000 ------- 2 2.0 3.0 15 15
r 0.117657 2 3 cbr 1000 ------- 2 2.0 3.0 6 6
+ 0.118286 2 3 cbr 1000 ------- 2 2.0 3.0 16 16
- 0.118286 2 3 cbr 1000 ------- 2 2.0 3.0 16 16
r 0.1188 2 3 cbr 1000 ------- 2 2.0 3.0 7 7
+ 0.119429 2 3 cbr 1000 ------- 2 2.0 3.0 17 17
- 0.119429 2 3 cbr 1000 ------- 2 2.0 3.0 17 17
r 0.119943 2 3 cbr 1000 ------- 2 2.0 3.0 8 8
+ 0.120571 2 3 cbr 1000 ------- 2 2.0 3.0 18 18
- 0.120571 2 3 cbr 1000 ------- 2 2.0 3.0 18 18
r 0.121086 2 3 cbr 1000 ------- 2 2.0 3.0 9 9
+ 0.121714 2 3 cbr 1000 ------- 2 2.0 3.0 19 19
- 0.121714 2 3 cbr 1000 ------- 2 2.0 3.0 19 19
r 0.122229 2 3 cbr 1000 ------- 2 2.0 3.0 10 10
+ 0.122857 2 3 cbr 1000 ------- 2 2.0 3.0 20 20
- 0.122857 2 3 cbr 1000 ------- 2 2.0 3.0 20 20
r 0.123371 2 3 cbr 1000 ------- 2 2.0 3.0 11 11
+ 0.124 2 3 cbr 1000 ------- 2 2.0 3.0 21 21
- 0.124 2 3 cbr 1000 ------- 2 2.0 3.0 21 21
r 0.124514 2 3 cbr 1000 ------- 2 2.0 3.0 12 12
+ 0.125143 2 3 cbr 1000 ------- 2 2.0 3.0 22 22
- 0.125143 2 3 cbr 1000 ------- 2 2.0 3.0 22 22
r 0.125657 2 3 cbr 1000 ------- 2 2.0 3.0 13 13
+ 0.126286 2 3 cbr 1000 ------- 2 2.0 3.0 23 23
- 0.126286 2 3 cbr 1000 ------- 2 2.0 3.0 23 23
r 0.1268 2 3 cbr 1000 ------- 2 2.0 3.0 14 14
+ 0.127429 2 3 cbr 1000 ------- 2 2.0 3.0 24 24
- 0.127429 2 3 cbr 1000 ------- 2 2.0 3.0 24 24
r 0.127943 2 3 cbr 1000 ------- 2 2.0 3.0 15 15
+ 0.128571 2 3 cbr 1000 ------- 2 2.0 3.0 25 25
- 0.128571 2 3 cbr 1000 ------- 2 2.0 3.0 25 25
r 0.129086 2 3 cbr 1000 ------- 2 2.0 3.0 16 16
+ 0.129714 2 3 cbr 1000 ------- 2 2.0 3.0 26 26
- 0.129714 2 3 cbr 1000 ------- 2 2.0 3.0 26 26
r 0.130229 2 3 cbr 1000 ------- 2 2.0 3.0 17 17
+ 0.130857 2 3 cbr 1000 ------- 2 2.0 3.0 27 27
- 0.130857 2 3 cbr 1000 ------- 2 2.0 3.0 27 27
r 0.131371 2 3 cbr 1000 ------- 2 2.0 3.0 18 18
+ 0.132 2 3 cbr 1000 ------- 2 2.0 3.0 28 28
- 0.132 2 3 cbr 1000 ------- 2 2.0 3.0 28 28
r 0.132514 2 3 cbr 1000 ------- 2 2.0 3.0 19 19
+ 0.133143 2 3 cbr 1000 ------- 2 2.0 3.0 29 29
- 0.133143 2 3 cbr 1000 ------- 2 2.0 3.0 29 29
r 0.133657 2 3 cbr 1000 ------- 2 2.0 3.0 20 20
+ 0.134286 2 3 cbr 1000 ------- 2 2.0 3.0 30 30
- 0.134286 2 3 cbr 1000 ------- 2 2.0 3.0 30 30
r 0.1348 2 3 cbr 1000 ------- 2 2.0 3.0 21 21
+ 0.135429 2 3 cbr 1000 ------- 2 2.0 3.0 31 31
- 0.135429 2 3 cbr 1000 ------- 2 2.0 3.0 31 31
r 0.135943 2 3 cbr 1000 ------- 2 2.0 3.0 22 22
+ 0.136571 2 3 cbr 1000 ------- 2 2.0 3.0 32 32
- 0.136571 2 3 cbr 1000 ------- 2 2.0 3.0 32 32
r 0.137086 2 3 cbr 1000 ------- 2 2.0 3.0 23 23
+ 0.137714 2 3 cbr 1000 ------- 2 2.0 3.0 33 33
- 0.137714 2 3 cbr 1000 ------- 2 2.0 3.0 33 33
r 0.138229 2 3 cbr 1000 ------- 2 2.0 3.0 24 24
+ 0.138857 2 3 cbr 1000 ------- 2 2.0 3.0 34 34
- 0.138857 2 3 cbr 1000 ------- 2 2.0 3.0 34 34
r 0.139371 2 3 cbr 1000 ------- 2 2.0 3.0 25 25
+ 0.14 2 3 cbr 1000 ------- 2 2.0 3.0 35 35
- 0.14 2 3 cbr 1000 ------- 2 2.0 3.0 35 35
r 0.140514 2 3 cbr 1000 ------- 2 2.0 3.0 26 26
+ 0.141143 2 3 cbr 1000 ------- 2 2.0 3.0 36 36
- 0.141143 2 3 cbr 1000 ------- 2 2.0 3.0 36 36
r 0.141657 2 3 cbr 1000 ------- 2 2.0 3.0 27 27
+ 0.142286 2 3 cbr 1000 ------- 2 2.0 3.0 37 37
- 0.142286 2 3 cbr 1000 ------- 2 2.0 3.0 37 37
r 0.1428 2 3 cbr 1000 ------- 2 2.0 3.0 28 28
+ 0.143429 2 3 cbr 1000 ------- 2 2.0 3.0 38 38
- 0.143429 2 3 cbr 1000 ------- 2 2.0 3.0 38 38
r 0.143943 2 3 cbr 1000 ------- 2 2.0 3.0 29 29
+ 0.144571 2 3 cbr 1000 ------- 2 2.0 3.0 39 39
- 0.144571 2 3 cbr 1000 ------- 2 2.0 3.0 39 39
r 0.145086 2 3 cbr 1000 ------- 2 2.0 3.0 30 30
+ 0.145714 2 3 cbr 1000 ------- 2 2.0 3.0 40 40
- 0.145714 2 3 cbr 1000 ------- 2 2.0 3.0 40 40
r 0.146229 2 3 cbr 1000 ------- 2 2.0 3.0 31 31
+ 0.146857 2 3 cbr 1000 ------- 2 2.0 3.0 41 41
- 0.146857 2 3 cbr 1000 ------- 2 2.0 3.0 41 41
r 0.147371 2 3 cbr 1000 ------- 2 2.0 3.0 32 32
+ 0.148 2 3 cbr 1000 ------- 2 2.0 3.0 42 42
- 0.148 2 3 cbr 1000 ------- 2 2.0 3.0 42 42
r 0.148514 2 3 cbr 1000 ------- 2 2.0 3.0 33 33
+ 0.149143 2 3 cbr 1000 ------- 2 2.0 3.0 43 43
- 0.149143 2 3 cbr 1000 ------- 2 2.0 3.0 43 43
r 0.149657 2 3 cbr 1000 ------- 2 2.0 3.0 34 34
+ 0.150286 2 3 cbr 1000 ------- 2 2.0 3.0 44 44
- 0.150286 2 3 cbr 1000 ------- 2 2.0 3.0 44 44
r 0.1508 2 3 cbr 1000 ------- 2 2.0 3.0 35 35
+ 0.151429 2 3 cbr 1000 ------- 2 2.0 3.0 45 45
- 0.151429 2 3 cbr 1000 ------- 2 2.0 3.0 45 45
r 0.151943 2 3 cbr 1000 ------- 2 2.0 3.0 36 36
+ 0.152571 2 3 cbr 1000 ------- 2 2.0 3.0 46 46
- 0.152571 2 3 cbr 1000 ------- 2 2.0 3.0 46 46
r 0.153086 2 3 cbr 1000 ------- 2 2.0 3.0 37 37
+ 0.153714 2 3 cbr 1000 ------- 2 2.0 3.0 47 47
- 0.153714 2 3 cbr 1000 ------- 2 2.0 3.0 47 47
r 0.154229 2 3 cbr 1000 ------- 2 2.0 3.0 38 38
+ 0.154857 2 3 cbr 1000 ------- 2 2.0 3.0 48 48
- 0.154857 2 3 cbr 1000 ------- 2 2.0 3.0 48 48
r 0.155371 2 3 cbr 1000 ------- 2 2.0 3.0 39 39
+ 0.156 2 3 cbr 1000 ------- 2 2.0 3.0 49 49
- 0.156 2 3 cbr 1000 ------- 2 2.0 3.0 49 49
r 0.156514 2 3 cbr 1000 ------- 2 2.0 3.0 40 40
+ 0.157143 2 3 cbr 1000 ------- 2 2.0 3.0 50 50
- 0.157143 2 3 cbr 1000 ------- 2 2.0 3.0 50 50
r 0.157657 2 3 cbr 1000 ------- 2 2.0 3.0 41 41
+ 0.158286 2 3 cbr 1000 ------- 2 2.0 3.0 51 51
- 0.158286 2 3 cbr 1000 ------- 2 2.0 3.0 51 51
r 0.1588 2 3 cbr 1000 ------- 2 2.0 3.0 42 42
+ 0.159429 2 3 cbr 1000 ------- 2 2.0 3.0 52 52
- 0.159429 2 3 cbr 1000 ------- 2 2.0 3.0 52 52
r 0.159943 2 3 cbr 1000 ------- 2 2.0 3.0 43 43
+ 0.160571 2 3 cbr 1000 ------- 2 2.0 3.0 53 53
- 0.160571 2 3 cbr 1000 ------- 2 2.0 3.0 53 53
r 0.161086 2 3 cbr 1000 ------- 2 2.0 3.0 44 44
+ 0.161714 2 3 cbr 1000 ------- 2 2.0 3.0 54 54
- 0.161714 2 3 cbr 1000 ------- 2 2.0 3.0 54 54
r 0.162229 2 3 cbr 1000 ------- 2 2.0 3.0 45 45
+ 0.162857 2 3 cbr 1000 ------- 2 2.0 3.0 55 55
- 0.162857 2 3 cbr 1000 ------- 2 2.0 3.0 55 55
r 0.163371 2 3 cbr 1000 ------- 2 2.0 3.0 46 46
+ 0.164 2 3 cbr 1000 ------- 2 2.0 3.0 56 56
- 0.164 2 3 cbr 1000 ------- 2 2.0 3.0 56 56
r 0.164514 2 3 cbr 1000 ------- 2 2.0 3.0 47 47
+ 0.165143 2 3 cbr 1000 ------- 2 2.0 3.0 57 57
- 0.165143 2 3 cbr 1000 ------- 2 2.0 3.0 57 57
r 0.165657 2 3 cbr 1000 ------- 2 2.0 3.0 48 48
+ 0.166286 2 3 cbr 1000 ------- 2 2.0 3.0 58 58
- 0.166286 2 3 cbr 1000 ------- 2 2.0 3.0 58 58
r 0.1668 2 3 cbr 1000 ------- 2 2.0 3.0 49 49
+ 0.167429 2 3 cbr 1000 ------- 2 2.0 3.0 59 59
- 0.167429 2 3 cbr 1000 ------- 2 2.0 3.0 59 59
r 0.167943 2 3 cbr 1000 ------- 2 2.0 3.0 50 50
+ 0.168571 2 3 cbr 1000 ------- 2 2.0 3.0 60 60
- 0.168571 2 3 cbr 1000 ------- 2 2.0 3.0 60 60
r 0.169086 2 3 cbr 1000 ------- 2 2.0 3.0 51 51
+ 0.169714 2 3 cbr 1000 ------- 2 2.0 3.0 61 61
- 0.169714 2 3 cbr 1000 ------- 2 2.0 3.0 61 61
r 0.170229 2 3 cbr 1000 ------- 2 2.0 3.0 52 52
+ 0.170857 2 3 cbr 1000 ------- 2 2.0 3.0 62 62
- 0.170857 2 3 cbr 1000 ------- 2 2.0 3.0 62 62
r 0.171371 2 3 cbr 1000 ------- 2 2.0 3.0 53 53
+ 0.172 2 3 cbr 1000 ------- 2 2.0 3.0 63 63
- 0.172 2 3 cbr 1000 ------- 2 2.0 3.0 63 63
r 0.172514 2 3 cbr 1000 ------- 2 2.0 3.0 54 54
+ 0.173143 2 3 cbr 1000 ------- 2 2.0 3.0 64 64
- 0.173143 2 3 cbr 1000 ------- 2 2.0 3.0 64 64
r 0.173657 2 3 cbr 1000 ------- 2 2.0 3.0 55 55
+ 0.174286 2 3 cbr 1000 ------- 2 2.0 3.0 65 65
- 0.174286 2 3 cbr 1000 ------- 2 2.0 3.0 65 65
r 0.1748 2 3 cbr 1000 ------- 2 2.0 3.0 56 56
+ 0.175429 2 3 cbr 1000 ------- 2 2.0 3.0 66 66
- 0.175429 2 3 cbr 1000 ------- 2 2.0 3.0 66 66
r 0.175943 2 3 cbr 1000 ------- 2 2.0 3.0 57 57
+ 0.176571 2 3 cbr 1000 ------- 2 2.0 3.0 67 67
- 0.176571 2 3 cbr 1000 ------- 2 2.0 3.0 67 67
r 0.177086 2 3 cbr 1000 ------- 2 2.0 3.0 58 58
+ 0.177714 2 3 cbr 1000 ------- 2 2.0 3.0 68 68
- 0.177714 2 3 cbr 1000 ------- 2 2.0 3.0 68 68
r 0.178229 2 3 cbr 1000 ------- 2 2.0 3.0 59 59
+ 0.178857 2 3 cbr 1000 ------- 2 2.0 3.0 69 69
- 0.178857 2 3 cbr 1000 ------- 2 2.0 3.0 69 69
r 0.179371 2 3 cbr 1000 ------- 2 2.0 3.0 60 60
+ 0.18 2 3 cbr 1000 ------- 2 2.0 3.0 70 70
- 0.18 2 3 cbr 1000 ------- 2 2.0 3.0 70 70
r 0.180514 2 3 cbr 1000 ------- 2 2.0 3.0 61 61
+ 0.181143 2 3 cbr 1000 ------- 2 2.0 3.0 71 71
- 0.181143 2 3 cbr 1000 ------- 2 2.0 3.0 71 71
r 0.181657 2 3 cbr 1000 ------- 2 2.0 3.0 62 62
+ 0.182286 2 3 cbr 1000 ------- 2 2.0 3.0 72 72
- 0.182286 2 3 cbr 1000 ------- 2 2.0 3.0 72 72
r 0.1828 2 3 cbr 1000 ------- 2 2.0 3.0 63 63
+ 0.183429 2 3 cbr 1000 ------- 2 2.0 3.0 73 73
- 0.183429 2 3 cbr 1000 ------- 2 2.0 3.0 73 73
r 0.183943 2 3 cbr 1000 ------- 2 2.0 3.0 64 64
+ 0.184571 2 3 cbr 1000 ------- 2 2.0 3.0 74 74
- 0.184571 2 3 cbr 1000 ------- 2 2.0 3.0 74 74
r 0.185086 2 3 cbr 1000 ------- 2 2.0 3.0 65 65
+ 0.185714 2 3 cbr 1000 ------- 2 2.0 3.0 75 75
- 0.185714 2 3 cbr 1000 ------- 2 2.0 3.0 75 75
r 0.186229 2 3 cbr 1000 ------- 2 2.0 3.0 66 66
+ 0.186857 2 3 cbr 1000 ------- 2 2.0 3.0 76 76
- 0.186857 2 3 cbr 1000 ------- 2 2.0 3.0 76 76
r 0.187371 2 3 cbr 1000 ------- 2 2.0 3.0 67 67
+ 0.188 2 3 cbr 1000 ------- 2 2.0 3.0 77 77
- 0.188 2 3 cbr 1000 ------- 2 2.0 3.0 77 77
r 0.188514 2 3 cbr 1000 ------- 2 2.0 3.0 68 68
+ 0.189143 2 3 cbr 1000 ------- 2 2.0 3.0 78 78
- 0.189143 2 3 cbr 1000 ------- 2 2.0 3.0 78 78
r 0.189657 2 3 cbr 1000 ------- 2 2.0 3.0 69 69
+ 0.190286 2 3 cbr 1000 ------- 2 2.0 3.0 79 79
- 0.190286 2 3 cbr 1000 ------- 2 2.0 3.0 79 79
r 0.1908 2 3 cbr 1000 ------- 2 2.0 3.0 70 70
+ 0.191429 2 3 cbr 1000 ------- 2 2.0 3.0 80 80
- 0.191429 2 3 cbr 1000 ------- 2 2.0 3.0 80 80
r 0.191943 2 3 cbr 1000 ------- 2 2.0 3.0 71 71
+ 0.192571 2 3 cbr 1000 ------- 2 2.0 3.0 81 81
- 0.192571 2 3 cbr 1000 ------- 2 2.0 3.0 81 81
r 0.193086 2 3 cbr 1000 ------- 2 2.0 3.0 72 72
+ 0.193714 2 3 cbr 1000 ------- 2 2.0 3.0 82 82
- 0.193714 2 3 cbr 1000 ------- 2 2.0 3.0 82 82
r 0.194229 2 3 cbr 1000 ------- 2 2.0 3.0 73 73
+ 0.194857 2 3 cbr 1000 ------- 2 2.0 3.0 83 83
- 0.194857 2 3 cbr 1000 ------- 2 2.0 3.0 83 83
r 0.195371 2 3 cbr 1000 ------- 2 2.0 3.0 74 74
+ 0.196 2 3 cbr 1000 ------- 2 2.0 3.0 84 84
- 0.196 2 3 cbr 1000 ------- 2 2.0 3.0 84 84
r 0.196514 2 3 cbr 1000 ------- 2 2.0 3.0 75 75
+ 0.197143 2 3 cbr 1000 ------- 2 2.0 3.0 85 85
- 0.197143 2 3 cbr 1000 ------- 2 2.0 3.0 85 85
r 0.197657 2 3 cbr 1000 ------- 2 2.0 3.0 76 76
+ 0.198286 2 3 cbr 1000 ------- 2 2.0 3.0 86 86
- 0.198286 2 3 cbr 1000 ------- 2 2.0 3.0 86 86
r 0.1988 2 3 cbr 1000 ------- 2 2.0 3.0 77 77
+ 0.199429 2 3 cbr 1000 ------- 2 2.0 3.0 87 87
- 0.199429 2 3 cbr 1000 ------- 2 2.0 3.0 87 87
r 0.199943 2 3 cbr 1000 ------- 2 2.0 3.0 78 78
+ 0.200571 2 3 cbr 1000 ------- 2 2.0 3.0 88 88
- 0.200571 2 3 cbr 1000 ------- 2 2.0 3.0 88 88
r 0.201086 2 3 cbr 1000 ------- 2 2.0 3.0 79 79
+ 0.201714 2 3 cbr 1000 ------- 2 2.0 3.0 89 89
- 0.201714 2 3 cbr 1000 ------- 2 2.0 3.0 89 89
r 0.202229 2 3 cbr 1000 ------- 2 2.0 3.0 80 80
+ 0.202857 2 3 cbr 1000 ------- 2 2.0 3.0 90 90
- 0.202857 2 3 cbr 1000 ------- 2 2.0 3.0 90 90
r 0.203371 2 3 cbr 1000 ------- 2 2.0 3.0 81 81
+ 0.204 2 3 cbr 1000 ------- 2 2.0 3.0 91 91
- 0.204 2 3 cbr 1000 ------- 2 2.0 3.0 91 91
r 0.204514 2 3 cbr 1000 ------- 2 2.0 3.0 82 82
+ 0.205143 2 3 cbr 1000 ------- 2 2.0 3.0 92 92
- 0.205143 2 3 cbr 1000 ------- 2 2.0 3.0 92 92
r 0.205657 2 3 cbr 1000 ------- 2 2.0 3.0 83 83
+ 0.206286 2 3 cbr 1000 ------- 2 2.0 3.0 93 93
- 0.206286 2 3 cbr 1000 ------- 2 2.0 3.0 93 93
r 0.2068 2 3 cbr 1000 ------- 2 2.0 3.0 84 84
+ 0.207429 2 3 cbr 1000 ------- 2 2.0 3.0 94 94
- 0.207429 2 3 cbr 1000 ------- 2 2.0 3.0 94 94
r 0.207943 2 3 cbr 1000 ------- 2 2.0 3.0 85 85
+ 0.208571 2 3 cbr 1000 ------- 2 2.0 3.0 95 95
- 0.208571 2 3 cbr 1000 ------- 2 2.0 3.0 95 95
r 0.209086 2 3 cbr 1000 ------- 2 2.0 3.0 86 86
+ 0.209714 2 3 cbr 1000 ------- 2 2.0 3.0 96 96
- 0.209714 2 3 cbr 1000 ------- 2 2.0 3.0 96 96
r 0.210229 2 3 cbr 1000 ------- 2 2.0 3.0 87 87
+ 0.210857 2 3 cbr 1000 ------- 2 2.0 3.0 97 97
- 0.210857 2 3 cbr 1000 ------- 2 2.0 3.0 97 97
r 0.211371 2 3 cbr 1000 ------- 2 2.0 3.0 88 88
+ 0.212 2 3 cbr 1000 ------- 2 2.0 3.0 98 98
- 0.212 2 3 cbr 1000 ------- 2 2.0 3.0 98 98
r 0.212514 2 3 cbr 1000 ------- 2 2.0 3.0 89 89
+ 0.213143 2 3 cbr 1000 ------- 2 2.0 3.0 99 99
- 0.213143 2 3 cbr 1000 ------- 2 2.0 3.0 99 99
r 0.213657 2 3 cbr 1000 ------- 2 2.0 3.0 90 90
+ 0.214286 2 3 cbr 1000 ------- 2 2.0 3.0 100 100
- 0.214286 2 3 cbr 1000 ------- 2 2.0 3.0 100 100
r 0.2148 2 3 cbr 1000 ------- 2 2.0 3.0 91 91
+ 0.215429 2 3 cbr 1000 ------- 2 2.0 3.0 101 101
- 0.215429 2 3 cbr 1000 ------- 2 2.0 3.0 101 101
r 0.215943 2 3 cbr 1000 ------- 2 2.0 3.0 92 92
+ 0.216571 2 3 cbr 1000 ------- 2 2.0 3.0 102 102
- 0.216571 2 3 cbr 1000 ------- 2 2.0 3.0 102 102
r 0.217086 2 3 cbr 1000 ------- 2 2.0 3.0 93 93
+ 0.217714 2 3 cbr 1000 ------- 2 2.0 3.0 103 103
- 0.217714 2 3 cbr 1000 ------- 2 2.0 3.0 103 103
r 0.218229 2 3 cbr 1000 ------- 2 2.0 3.0 94 94
+ 0.218857 2 3 cbr 1000 ------- 2 2.0 3.0 104 104
- 0.218857 2 3 cbr 1000 ------- 2 2.0 3.0 104 104
r 0.219371 2 3 cbr 1000 ------- 2 2.0 3.0 95 95
+ 0.22 2 3 cbr 1000 ------- 2 2.0 3.0 105 105
- 0.22 2 3 cbr 1000 ------- 2 2.0 3.0 105 105
r 0.220514 2 3 cbr 1000 ------- 2 2.0 3.0 96 96
+ 0.221143 2 3 cbr 1000 ------- 2 2.0 3.0 106 106
- 0.221143 2 3 cbr 1000 ------- 2 2.0 3.0 106 106
r 0.221657 2 3 cbr 1000 ------- 2 2.0 3.0 97 97
+ 0.222286 2 3 cbr 1000 ------- 2 2.0 3.0 107 107
- 0.222286 2 3 cbr 1000 ------- 2 2.0 3.0 107 107
r 0.2228 2 3 cbr 1000 ------- 2 2.0 3.0 98 98
+ 0.223429 2 3 cbr 1000 ------- 2 2.0 3.0 108 108
- 0.223429 2 3 cbr 1000 ------- 2 2.0 3.0 108 108
r 0.223943 2 3 cbr 1000 ------- 2 2.0 3.0 99 99
+ 0.224571 2 3 cbr 1000 ------- 2 2.0 3.0 109 109
- 0.224571 2 3 cbr 1000 ------- 2 2.0 3.0 109 109
r 0.225086 2 3 cbr 1000 ------- 2 2.0 3.0 100 100
+ 0.225714 2 3 cbr 1000 ------- 2 2.0 3.0 110 110
- 0.225714 2 3 cbr 1000 ------- 2 2.0 3.0 110 110
r 0.226229 2 3 cbr 1000 ------- 2 2.0 3.0 101 101
+ 0.226857 2 3 cbr 1000 ------- 2 2.0 3.0 111 111
- 0.226857 2 3 cbr 1000 ------- 2 2.0 3.0 111 111
r 0.227371 2 3 cbr 1000 ------- 2 2.0 3.0 102 102
+ 0.228 2 3 cbr 1000 ------- 2 2.0 3.0 112 112
- 0.228 2 3 cbr 1000 ------- 2 2.0 3.0 112 112
r 0.228514 2 3 cbr 1000 ------- 2 2.0 3.0 103 103
+ 0.229143 2 3 cbr 1000 ------- 2 2.0 3.0 113 113
- 0.229143 2 3 cbr 1000 ------- 2 2.0 3.0 113 113
r 0.229657 2 3 cbr 1000 ------- 2 2.0 3.0 104 104
+ 0.230286 2 3 cbr 1000 ------- 2 2.0 3.0 114 114
- 0.230286 2 3 cbr 1000 ------- 2 2.0 3.0 114 114
r 0.2308 2 3 cbr 1000 ------- 2 2.0 3.0 105 105
+ 0.231429 2 3 cbr 1000 ------- 2 2.0 3.0 115 115
- 0.231429 2 3 cbr 1000 ------- 2 2.0 3.0 115 115
r 0.231943 2 3 cbr 1000 ------- 2 2.0 3.0 106 106
+ 0.232571 2 3 cbr 1000 ------- 2 2.0 3.0 116 116
- 0.232571 2 3 cbr 1000 ------- 2 2.0 3.0 116 116
r 0.233086 2 3 cbr 1000 ------- 2 2.0 3.0 107 107
+ 0.233714 2 3 cbr 1000 ------- 2 2.0 3.0 117 117
- 0.233714 2 3 cbr 1000 ------- 2 2.0 3.0 117 117
r 0.234229 2 3 cbr 1000 ------- 2 2.0 3.0 108 108
+ 0.234857 2 3 cbr 1000 ------- 2 2.0 3.0 118 118
- 0.234857 2 3 cbr 1000 ------- 2 2.0 3.0 118 118
r 0.235371 2 3 cbr 1000 ------- 2 2.0 3.0 109 109
+ 0.236 2 3 cbr 1000 ------- 2 2.0 3.0 119 119
- 0.236 2 3 cbr 1000 ------- 2 2.0 3.0 119 119
r 0.236514 2 3 cbr 1000 ------- 2 2.0 3.0 110 110
+ 0.237143 2 3 cbr 1000 ------- 2 2.0 3.0 120 120
- 0.237143 2 3 cbr 1000 ------- 2 2.0 3.0 120 120
r 0.237657 2 3 cbr 1000 ------- 2 2.0 3.0 111 111
+ 0.238286 2 3 cbr 1000 ------- 2 2.0 3.0 121 121
- 0.238286 2 3 cbr 1000 ------- 2 2.0 3.0 121 121
r 0.2388 2 3 cbr 1000 ------- 2 2.0 3.0 112 112
+ 0.239429 2 3 cbr 1000 ------- 2 2.0 3.0 122 122
- 0.239429 2 3 cbr 1000 ------- 2 2.0 3.0 122 122
r 0.239943 2 3 cbr 1000 ------- 2 2.0 3.0 113 113
+ 0.240571 2 3 cbr 1000 ------- 2 2.0 3.0 123 123
- 0.240571 2 3 cbr 1000 ------- 2 2.0 3.0 123 123
r 0.241086 2 3 cbr 1000 ------- 2 2.0 3.0 114 114
+ 0.241714 2 3 cbr 1000 ------- 2 2.0 3.0 124 124
- 0.241714 2 3 cbr 1000 ------- 2 2.0 3.0 124 124
r 0.242229 2 3 cbr 1000 ------- 2 2.0 3.0 115 115
+ 0.242857 2 3 cbr 1000 ------- 2 2.0 3.0 125 125
- 0.242857 2 3 cbr 1000 ------- 2 2.0 3.0 125 125
r 0.243371 2 3 cbr 1000 ------- 2 2.0 3.0 116 116
+ 0.244 2 3 cbr 1000 ------- 2 2.0 3.0 126 126
- 0.244 2 3 cbr 1000 ------- 2 2.0 3.0 126 126
r 0.244514 2 3 cbr 1000 ------- 2 2.0 3.0 117 117
+ 0.245143 2 3 cbr 1000 ------- 2 2.0 3.0 127 127
- 0.245143 2 3 cbr 1000 ------- 2 2.0 3.0 127 127
r 0.245657 2 3 cbr 1000 ------- 2 2.0 3.0 118 118
+ 0.246286 2 3 cbr 1000 ------- 2 2.0 3.0 128 128
- 0.246286 2 3 cbr 1000 ------- 2 2.0 3.0 128 128
r 0.2468 2 3 cbr 1000 ------- 2 2.0 3.0 119 119
+ 0.247429 2 3 cbr 1000 ------- 2 2.0 3.0 129 129
- 0.247429 2 3 cbr 1000 ------- 2 2.0 3.0 129 129
r 0.247943 2 3 cbr 1000 ------- 2 2.0 3.0 120 120
+ 0.248571 2 3 cbr 1000 ------- 2 2.0 3.0 130 130
- 0.248571 2 3 cbr 1000 ------- 2 2.0 3.0 130 130
r 0.249086 2 3 cbr 1000 ------- 2 2.0 3.0 121 121
+ 0.249714 2 3 cbr 1000 ------- 2 2.0 3.0 131 131
- 0.249714 2 3 cbr 1000 ------- 2 2.0 3.0 131 131
r 0.250229 2 3 cbr 1000 ------- 2 2.0 3.0 122 122
+ 0.250857 2 3 cbr 1000 ------- 2 2.0 3.0 132 132
- 0.250857 2 3 cbr 1000 ------- 2 2.0 3.0 132 132
r 0.251371 2 3 cbr 1000 ------- 2 2.0 3.0 123 123
+ 0.252 2 3 cbr 1000 ------- 2 2.0 3.0 133 133
- 0.252 2 3 cbr 1000 ------- 2 2.0 3.0 133 133
r 0.252514 2 3 cbr 1000 ------- 2 2.0 3.0 124 124
+ 0.253143 2 3 cbr 1000 ------- 2 2.0 3.0 134 134
- 0.253143 2 3 cbr 1000 ------- 2 2.0 3.0 134 134
r 0.253657 2 3 cbr 1000 ------- 2 2.0 3.0 125 125
+ 0.254286 2 3 cbr 1000 ------- 2 2.0 3.0 135 135
- 0.254286 2 3 cbr 1000 ------- 2 2.0 3.0 135 135
r 0.2548 2 3 cbr 1000 ------- 2 2.0 3.0 126 126
+ 0.255429 2 3 cbr 1000 ------- 2 2.0 3.0 136 136
- 0.255429 2 3 cbr 1000 ------- 2 2.0 3.0 136 136
r 0.255943 2 3 cbr 1000 ------- 2 2.0 3.0 127 127
+ 0.256571 2 3 cbr 1000 ------- 2 2.0 3.0 137 137
- 0.256571 2 3 cbr 1000 ------- 2 2.0 3.0 137 137
r 0.257086 2 3 cbr 1000 ------- 2 2.0 3.0 128 128
+ 0.257714 2 3 cbr 1000 ------- 2 2.0 3.0 138 138
- 0.257714 2 3 cbr 1000 ------- 2 2.0 3.0 138 138
r 0.258229 2 3 cbr 1000 ------- 2 2.0 3.0 129 129
+ 0.258857 2 3 cbr 1000 ------- 2 2.0 3.0 139 139
- 0.258857 2 3 cbr 1000 ------- 2 2.0 3.0 139 139
r 0.259371 2 3 cbr 1000 ------- 2 2.0 3.0 130 130
+ 0.26 2 3 cbr 1000 ------- 2 2.0 3.0 140 140
- 0.26 2 3 cbr 1000 ------- 2 2.0 3.0 140 140
r 0.260514 2 3 cbr 1000 ------- 2 2.0 3.0 131 131
+ 0.261143 2 3 cbr 1000 ------- 2 2.0 3.0 141 141
- 0.261143 2 3 cbr 1000 ------- 2 2.0 3.0 141 141
r 0.261657 2 3 cbr 1000 ------- 2 2.0 3.0 132 132
+ 0.262286 2 3 cbr 1000 ------- 2 2.0 3.0 142 142
- 0.262286 2 3 cbr 1000 ------- 2 2.0 3.0 142 142
r 0.2628 2 3 cbr 1000 ------- 2 2.0 3.0 133 133
+ 0.263429 2 3 cbr 1000 ------- 2 2.0 3.0 143 143
- 0.263429 2 3 cbr 1000 ------- 2 2.0 3.0 143 143
r 0.263943 2 3 cbr 1000 ------- 2 2.0 3.0 134 134
+ 0.264571 2 3 cbr 1000 ------- 2 2.0 3.0 144 144
- 0.264571 2 3 cbr 1000 ------- 2 2.0 3.0 144 144
r 0.265086 2 3 cbr 1000 ------- 2 2.0 3.0 135 135
+ 0.265714 2 3 cbr 1000 ------- 2 2.0 3.0 145 145
- 0.265714 2 3 cbr 1000 ------- 2 2.0 3.0 145 145
r 0.266229 2 3 cbr 1000 ------- 2 2.0 3.0 136 136
+ 0.266857 2 3 cbr 1000 ------- 2 2.0 3.0 146 146
- 0.266857 2 3 cbr 1000 ------- 2 2.0 3.0 146 146
r 0.267371 2 3 cbr 1000 ------- 2 2.0 3.0 137 137
+ 0.268 2 3 cbr 1000 ------- 2 2.0 3.0 147 147
- 0.268 2 3 cbr 1000 ------- 2 2.0 3.0 147 147
r 0.268514 2 3 cbr 1000 ------- 2 2.0 3.0 138 138
+ 0.269143 2 3 cbr 1000 ------- 2 2.0 3.0 148 148
- 0.269143 2 3 cbr 1000 ------- 2 2.0 3.0 148 148
r 0.269657 2 3 cbr 1000 ------- 2 2.0 3.0 139 139
+ 0.270286 2 3 cbr 1000 ------- 2 2.0 3.0 149 149
- 0.270286 2 3 cbr 1000 ------- 2 2.0 3.0 149 149
r 0.2708 2 3 cbr 1000 ------- 2 2.0 3.0 140 140
+ 0.271429 2 3 cbr 1000 ------- 2 2.0 3.0 150 150
- 0.271429 2 3 cbr 1000 ------- 2 2.0 3.0 150 150
r 0.271943 2 3 cbr 1000 ------- 2 2.0 3.0 141 141
+ 0.272571 2 3 cbr 1000 ------- 2 2.0 3.0 151 151
- 0.272571 2 3 cbr 1000 ------- 2 2.0 3.0 151 151
r 0.273086 2 3 cbr 1000 ------- 2 2.0 3.0 142 142
+ 0.273714 2 3 cbr 1000 ------- 2 2.0 3.0 152 152
- 0.273714 2 3 cbr 1000 ------- 2 2.0 3.0 152 152
r 0.274229 2 3 cbr 1000 ------- 2 2.0 3.0 143 143
+ 0.274857 2 3 cbr 1000 ------- 2 2.0 3.0 153 153
- 0.274857 2 3 cbr 1000 ------- 2 2.0 3.0 153 153
r 0.275371 2 3 cbr 1000 ------- 2 2.0 3.0 144 144
+ 0.276 2 3 cbr 1000 ------- 2 2.0 3.0 154 154
- 0.276 2 3 cbr 1000 ------- 2 2.0 3.0 154 154
r 0.276514 2 3 cbr 1000 ------- 2 2.0 3.0 145 145
+ 0.277143 2 3 cbr 1000 ------- 2 2.0 3.0 155 155
- 0.277143 2 3 cbr 1000 ------- 2 2.0 3.0 155 155
r 0.277657 2 3 cbr 1000 ------- 2 2.0 3.0 146 146
+ 0.278286 2 3 cbr 1000 ------- 2 2.0 3.0 156 156
- 0.278286 2 3 cbr 1000 ------- 2 2.0 3.0 156 156
r 0.2788 2 3 cbr 1000 ------- 2 2.0 3.0 147 147
+ 0.279429 2 3 cbr 1000 ------- 2 2.0 3.0 157 157
- 0.279429 2 3 cbr 1000 ------- 2 2.0 3.0 157 157
r 0.279943 2 3 cbr 1000 ------- 2 2.0 3.0 148 148
+ 0.280571 2 3 cbr 1000 ------- 2 2.0 3.0 158 158
- 0.280571 2 3 cbr 1000 ------- 2 2.0 3.0 158 158
r 0.281086 2 3 cbr 1000 ------- 2 2.0 3.0 149 149
+ 0.281714 2 3 cbr 1000 ------- 2 2.0 3.0 159 159
- 0.281714 2 3 cbr 1000 ------- 2 2.0 3.0 159 159
r 0.282229 2 3 cbr 1000 ------- 2 2.0 3.0 150 150
+ 0.282857 2 3 cbr 1000 ------- 2 2.0 3.0 160 160
- 0.282857 2 3 cbr 1000 ------- 2 2.0 3.0 160 160
r 0.283371 2 3 cbr 1000 ------- 2 2.0 3.0 151 151
+ 0.284 2 3 cbr 1000 ------- 2 2.0 3.0 161 161
- 0.284 2 3 cbr 1000 ------- 2 2.0 3.0 161 161
r 0.284514 2 3 cbr 1000 ------- 2 2.0 3.0 152 152
+ 0.285143 2 3 cbr 1000 ------- 2 2.0 3.0 162 162
- 0.285143 2 3 cbr 1000 ------- 2 2.0 3.0 162 162
r 0.285657 2 3 cbr 1000 ------- 2 2.0 3.0 153 153
+ 0.286286 2 3 cbr 1000 ------- 2 2.0 3.0 163 163
- 0.286286 2 3 cbr 1000 ------- 2 2.0 3.0 163 163
r 0.2868 2 3 cbr 1000 ------- 2 2.0 3.0 154 154
+ 0.287429 2 3 cbr 1000 ------- 2 2.0 3.0 164 164
- 0.287429 2 3 cbr 1000 ------- 2 2.0 3.0 164 164
r 0.287943 2 3 cbr 1000 ------- 2 2.0 3.0 155 155
+ 0.288571 2 3 cbr 1000 ------- 2 2.0 3.0 165 165
- 0.288571 2 3 cbr 1000 ------- 2 2.0 3.0 165 165
r 0.289086 2 3 cbr 1000 ------- 2 2.0 3.0 156 156
+ 0.289714 2 3 cbr 1000 ------- 2 2.0 3.0 166 166
- 0.289714 2 3 cbr 1000 ------- 2 2.0 3.0 166 166
r 0.290229 2 3 cbr 1000 ------- 2 2.0 3.0 157 157
+ 0.290857 2 3 cbr 1000 ------- 2 2.0 3.0 167 167
- 0.290857 2 3 cbr 1000 ------- 2 2.0 3.0 167 167
r 0.291371 2 3 cbr 1000 ------- 2 2.0 3.0 158 158
+ 0.292 2 3 cbr 1000 ------- 2 2.0 3.0 168 168
- 0.292 2 3 cbr 1000 ------- 2 2.0 3.0 168 168
r 0.292514 2 3 cbr 1000 ------- 2 2.0 3.0 159 159
+ 0.293143 2 3 cbr 1000 ------- 2 2.0 3.0 169 169
- 0.293143 2 3 cbr 1000 ------- 2 2.0 3.0 169 169
r 0.293657 2 3 cbr 1000 ------- 2 2.0 3.0 160 160
+ 0.294286 2 3 cbr 1000 ------- 2 2.0 3.0 170 170
- 0.294286 2 3 cbr 1000 ------- 2 2.0 3.0 170 170
r 0.2948 2 3 cbr 1000 ------- 2 2.0 3.0 161 161
+ 0.295429 2 3 cbr 1000 ------- 2 2.0 3.0 171 171
- 0.295429 2 3 cbr 1000 ------- 2 2.0 3.0 171 171
r 0.295943 2 3 cbr 1000 ------- 2 2.0 3.0 162 162
+ 0.296571 2 3 cbr 1000 ------- 2 2.0 3.0 172 172
- 0.296571 2 3 cbr 1000 ------- 2 2.0 3.0 172 172
r 0.297086 2 3 cbr 1000 ------- 2 2.0 3.0 163 163
+ 0.297714 2 3 cbr 1000 ------- 2 2.0 3.0 173 173
- 0.297714 2 3 cbr 1000 ------- 2 2.0 3.0 173 173
r 0.298229 2 3 cbr 1000 ------- 2 2.0 3.0 164 164
+ 0.298857 2 3 cbr 1000 ------- 2 2.0 3.0 174 174
- 0.298857 2 3 cbr 1000 ------- 2 2.0 3.0 174 174
r 0.299371 2 3 cbr 1000 ------- 2 2.0 3.0 165 165
+ 0.3 2 3 cbr 1000 ------- 2 2.0 3.0 175 175
- 0.3 2 3 cbr 1000 ------- 2 2.0 3.0 175 175
r 0.300514 2 3 cbr 1000 ------- 2 2.0 3.0 166 166
+ 0.301143 2 3 cbr 1000 ------- 2 2.0 3.0 176 176
- 0.301143 2 3 cbr 1000 ------- 2 2.0 3.0 176 176
r 0.301657 2 3 cbr 1000 ------- 2 2.0 3.0 167 167
+ 0.302286 2 3 cbr 1000 ------- 2 2.0 3.0 177 177
- 0.302286 2 3 cbr 1000 ------- 2 2.0 3.0 177 177
r 0.3028 2 3 cbr 1000 ------- 2 2.0 3.0 168 168
+ 0.303429 2 3 cbr 1000 ------- 2 2.0 3.0 178 178
- 0.303429 2 3 cbr 1000 ------- 2 2.0 3.0 178 178
r 0.303943 2 3 cbr 1000 ------- 2 2.0 3.0 169 169
+ 0.304571 2 3 cbr 1000 ------- 2 2.0 3.0 179 179
- 0.304571 2 3 cbr 1000 ------- 2 2.0 3.0 179 179
r 0.305086 2 3 cbr 1000 ------- 2 2.0 3.0 170 170
+ 0.305714 2 3 cbr 1000 ------- 2 2.0 3.0 180 180
- 0.305714 2 3 cbr 1000 ------- 2 2.0 3.0 180 180
r 0.306229 2 3 cbr 1000 ------- 2 2.0 3.0 171 171
+ 0.306857 2 3 cbr 1000 ------- 2 2.0 3.0 181 181
- 0.306857 2 3 cbr 1000 ------- 2 2.0 3.0 181 181
r 0.307371 2 3 cbr 1000 ------- 2 2.0 3.0 172 172
+ 0.308 2 3 cbr 1000 ------- 2 2.0 3.0 182 182
- 0.308 2 3 cbr 1000 ------- 2 2.0 3.0 182 182
r 0.308514 2 3 cbr 1000 ------- 2 2.0 3.0 173 173
+ 0.309143 2 3 cbr 1000 ------- 2 2.0 3.0 183 183
- 0.309143 2 3 cbr 1000 ------- 2 2.0 3.0 183 183
r 0.309657 2 3 cbr 1000 ------- 2 2.0 3.0 174 174
+ 0.310286 2 3 cbr 1000 ------- 2 2.0 3.0 184 184
- 0.310286 2 3 cbr 1000 ------- 2 2.0 3.0 184 184
r 0.3108 2 3 cbr 1000 ------- 2 2.0 3.0 175 175
+ 0.311429 2 3 cbr 1000 ------- 2 2.0 3.0 185 185
- 0.311429 2 3 cbr 1000 ------- 2 2.0 3.0 185 185
r 0.311943 2 3 cbr 1000 ------- 2 2.0 3.0 176 176
+ 0.312571 2 3 cbr 1000 ------- 2 2.0 3.0 186 186
- 0.312571 2 3 cbr 1000 ------- 2 2.0 3.0 186 186
r 0.313086 2 3 cbr 1000 ------- 2 2.0 3.0 177 177
+ 0.313714 2 3 cbr 1000 ------- 2 2.0 3.0 187 187
- 0.313714 2 3 cbr 1000 ------- 2 2.0 3.0 187 187
r 0.314229 2 3 cbr 1000 ------- 2 2.0 3.0 178 178
+ 0.314857 2 3 cbr 1000 ------- 2 2.0 3.0 188 188
- 0.314857 2 3 cbr 1000 ------- 2 2.0 3.0 188 188
r 0.315371 2 3 cbr 1000 ------- 2 2.0 3.0 179 179
+ 0.316 2 3 cbr 1000 ------- 2 2.0 3.0 189 189
- 0.316 2 3 cbr 1000 ------- 2 2.0 3.0 189 189
r 0.316514 2 3 cbr 1000 ------- 2 2.0 3.0 180 180
+ 0.317143 2 3 cbr 1000 ------- 2 2.0 3.0 190 190
- 0.317143 2 3 cbr 1000 ------- 2 2.0 3.0 190 190
r 0.317657 2 3 cbr 1000 ------- 2 2.0 3.0 181 181
+ 0.318286 2 3 cbr 1000 ------- 2 2.0 3.0 191 191
- 0.318286 2 3 cbr 1000 ------- 2 2.0 3.0 191 191
r 0.3188 2 3 cbr 1000 ------- 2 2.0 3.0 182 182
+ 0.319429 2 3 cbr 1000 ------- 2 2.0 3.0 192 192
- 0.319429 2 3 cbr 1000 ------- 2 2.0 3.0 192 192
r 0.319943 2 3 cbr 1000 ------- 2 2.0 3.0 183 183
+ 0.320571 2 3 cbr 1000 ------- 2 2.0 3.0 193 193
- 0.320571 2 3 cbr 1000 ------- 2 2.0 3.0 193 193
r 0.321086 2 3 cbr 1000 ------- 2 2.0 3.0 184 184
+ 0.321714 2 3 cbr 1000 ------- 2 2.0 3.0 194 194
- 0.321714 2 3 cbr 1000 ------- 2 2.0 3.0 194 194
r 0.322229 2 3 cbr 1000 ------- 2 2.0 3.0 185 185
+ 0.322857 2 3 cbr 1000 ------- 2 2.0 3.0 195 195
- 0.322857 2 3 cbr 1000 ------- 2 2.0 3.0 195 195
r 0.323371 2 3 cbr 1000 ------- 2 2.0 3.0 186 186
+ 0.324 2 3 cbr 1000 ------- 2 2.0 3.0 196 196
- 0.324 2 3 cbr 1000 ------- 2 2.0 3.0 196 196
r 0.324514 2 3 cbr 1000 ------- 2 2.0 3.0 187 187
+ 0.325143 2 3 cbr 1000 ------- 2 2.0 3.0 197 197
- 0.325143 2 3 cbr 1000 ------- 2 2.0 3.0 197 197
r 0.325657 2 3 cbr 1000 ------- 2 2.0 3.0 188 188
+ 0.326286 2 3 cbr 1000 ------- 2 2.0 3.0 198 198
- 0.326286 2 3 cbr 1000 ------- 2 2.0 3.0 198 198
r 0.3268 2 3 cbr 1000 ------- 2 2.0 3.0 189 189
+ 0.327429 2 3 cbr 1000 ------- 2 2.0 3.0 199 199
- 0.327429 2 3 cbr 1000 ------- 2 2.0 3.0 199 199
r 0.327943 2 3 cbr 1000 ------- 2 2.0 3.0 190 190
+ 0.328571 2 3 cbr 1000 ------- 2 2.0 3.0 200 200
- 0.328571 2 3 cbr 1000 ------- 2 2.0 3.0 200 200
r 0.329086 2 3 cbr 1000 ------- 2 2.0 3.0 191 191
+ 0.329714 2 3 cbr 1000 ------- 2 2.0 3.0 201 201
- 0.329714 2 3 cbr 1000 ------- 2 2.0 3.0 201 201
r 0.330229 2 3 cbr 1000 ------- 2 2.0 3.0 192 192
+ 0.330857 2 3 cbr 1000 ------- 2 2.0 3.0 202 202
- 0.330857 2 3 cbr 1000 ------- 2 2.0 3.0 202 202
r 0.331371 2 3 cbr 1000 ------- 2 2.0 3.0 193 193
+ 0.332 2 3 cbr 1000 ------- 2 2.0 3.0 203 203
- 0.332 2 3 cbr 1000 ------- 2 2.0 3.0 203 203
r 0.332514 2 3 cbr 1000 ------- 2 2.0 3.0 194 194
+ 0.333143 2 3 cbr 1000 ------- 2 2.0 3.0 204 204
- 0.333143 2 3 cbr 1000 ------- 2 2.0 3.0 204 204
r 0.333657 2 3 cbr 1000 ------- 2 2.0 3.0 195 195
+ 0.334286 2 3 cbr 1000 ------- 2 2.0 3.0 205 205
- 0.334286 2 3 cbr 1000 ------- 2 2.0 3.0 205 205
r 0.3348 2 3 cbr 1000 ------- 2 2.0 3.0 196 196
+ 0.335429 2 3 cbr 1000 ------- 2 2.0 3.0 206 206
- 0.335429 2 3 cbr 1000 ------- 2 2.0 3.0 206 206
r 0.335943 2 3 cbr 1000 ------- 2 2.0 3.0 197 197
+ 0.336571 2 3 cbr 1000 ------- 2 2.0 3.0 207 207
- 0.336571 2 3 cbr 1000 ------- 2 2.0 3.0 207 207
r 0.337086 2 3 cbr 1000 ------- 2 2.0 3.0 198 198
+ 0.337714 2 3 cbr 1000 ------- 2 2.0 3.0 208 208
- 0.337714 2 3 cbr 1000 ------- 2 2.0 3.0 208 208
r 0.338229 2 3 cbr 1000 ------- 2 2.0 3.0 199 199