+ 0.1 2 3 cbr 960 ------- 2 2.0 3.0 0 0
- 0.1 2 3 cbr 960 ------- 2 2.0 3.0 0 0
+ 0.100768 2 3 cbr 960 ------- 2 2.0 3.0 1 1
- 0.100768 2 3 cbr 960 ------- 2 2.0 3.0 1 1
+ 0.101536 2 3 cbr 960 ------- 2 2.0 3.0 2 2
- 0.101536 2 3 cbr 960 ------- 2 2.0 3.0 2 2
+ 0.102304 2 3 cbr 960 ------- 2 2.0 3.0 3 3
- 0.102304 2 3 cbr 960 ------- 2 2.0 3.0 3 3
+ 0.103072 2 3 cbr 960 ------- 2 2.0 3.0 4 4
- 0.103072 2 3 cbr 960 ------- 2 2.0 3.0 4 4
+ 0.10384 2 3 cbr 960 ------- 2 2.0 3.0 5 5
- 0.10384 2 3 cbr 960 ------- 2 2.0 3.0 5 5
+ 0.104608 2 3 cbr 960 ------- 2 2.0 3.0 6 6
- 0.104608 2 3 cbr 960 ------- 2 2.0 3.0 6 6
+ 0.105376 2 3 cbr 960 ------- 2 2.0 3.0 7 7
- 0.105376 2 3 cbr 960 ------- 2 2.0 3.0 7 7
+ 0.106144 2 3 cbr 960 ------- 2 2.0 3.0 8 8
- 0.106144 2 3 cbr 960 ------- 2 2.0 3.0 8 8
+ 0.106912 2 3 cbr 960 ------- 2 2.0 3.0 9 9
- 0.106912 2 3 cbr 960 ------- 2 2.0 3.0 9 9
+ 0.10768 2 3 cbr 960 ------- 2 2.0 3.0 10 10
- 0.10768 2 3 cbr 960 ------- 2 2.0 3.0 10 10
+ 0.108448 2 3 cbr 960 ------- 2 2.0 3.0 11 11
- 0.108448 2 3 cbr 960 ------- 2 2.0 3.0 11 11
+ 0.109216 2 3 cbr 960 ------- 2 2.0 3.0 12 12
- 0.109216 2 3 cbr 960 ------- 2 2.0 3.0 12 12
+ 0.109984 2 3 cbr 960 ------- 2 2.0 3.0 13 13
- 0.109984 2 3 cbr 960 ------- 2 2.0 3.0 13 13
+ 0.110752 2 3 cbr 960 ------- 2 2.0 3.0 14 14
- 0.110752 2 3 cbr 960 ------- 2 2.0 3.0 14 14
r 0.110768 2 3 cbr 960 ------- 2 2.0 3.0 0 0
+ 0.11152 2 3 cbr 960 ------- 2 2.0 3.0 15 15
- 0.11152 2 3 cbr 960 ------- 2 2.0 3.0 15 15
r 0.111536 2 3 cbr 960 ------- 2 2.0 3.0 1 1
+ 0.112288 2 3 cbr 960 ------- 2 2.0 3.0 16 16
- 0.112288 2 3 cbr 960 ------- 2 2.0 3.0 16 16
r 0.112304 2 3 cbr 960 ------- 2 2.0 3.0 2 2
+ 0.113056 2 3 cbr 960 ------- 2 2.0 3.0 17 17
- 0.113056 2 3 cbr 960 ------- 2 2.0 3.0 17 17
r 0.113072 2 3 cbr 960 ------- 2 2.0 3.0 3 3
+ 0.113824 2 3 cbr 960 ------- 2 2.0 3.0 18 18
- 0.113824 2 3 cbr 960 ------- 2 2.0 3.0 18 18
r 0.11384 2 3 cbr 960 ------- 2 2.0 3.0 4 4
+ 0.114592 2 3 cbr 960 ------- 2 2.0 3.0 19 19
- 0.114592 2 3 cbr 960 ------- 2 2.0 3.0 19 19
r 0.114608 2 3 cbr 960 ------- 2 2.0 3.0 5 5
+ 0.11536 2 3 cbr 960 ------- 2 2.0 3.0 20 20
- 0.11536 2 3 cbr 960 ------- 2 2.0 3.0 20 20
r 0.115376 2 3 cbr 960 ------- 2 2.0 3.0 6 6
+ 0.116128 2 3 cbr 960 ------- 2 2.0 3.0 21 21
- 0.116128 2 3 cbr 960 ------- 2 2.0 3.0 21 21
r 0.116144 2 3 cbr 960 ------- 2 2.0 3.0 7 7
+ 0.116896 2 3 cbr 960 ------- 2 2.0 3.0 22 22
- 0.116896 2 3 cbr 960 ------- 2 2.0 3.0 22 22
r 0.116912 2 3 cbr 960 ------- 2 2.0 3.0 8 8
+ 0.117664 2 3 cbr 960 ------- 2 2.0 3.0 23 23
- 0.117664 2 3 cbr 960 ------- 2 2.0 3.0 23 23
r 0.11768 2 3 cbr 960 ------- 2 2.0 3.0 9 9
+ 0.118432 2 3 cbr 960 ------- 2 2.0 3.0 24 24
- 0.118432 2 3 cbr 960 ------- 2 2.0 3.0 24 24
r 0.118448 2 3 cbr 960 ------- 2 2.0 3.0 10 10
+ 0.1192 2 3 cbr 960 ------- 2 2.0 3.0 25 25
- 0.1192 2 3 cbr 960 ------- 2 2.0 3.0 25 25
r 0.119216 2 3 cbr 960 ------- 2 2.0 3.0 11 11
+ 0.119968 2 3 cbr 960 ------- 2 2.0 3.0 26 26
- 0.119968 2 3 cbr 960 ------- 2 2.0 3.0 26 26
r 0.119984 2 3 cbr 960 ------- 2 2.0 3.0 12 12
+ 0.120736 2 3 cbr 960 ------- 2 2.0 3.0 27 27
- 0.120736 2 3 cbr 960 ------- 2 2.0 3.0 27 27
r 0.120752 2 3 cbr 960 ------- 2 2.0 3.0 13 13
+ 0.121504 2 3 cbr 960 ------- 2 2.0 3.0 28 28
- 0.121504 2 3 cbr 960 ------- 2 2.0 3.0 28 28
r 0.12152 2 3 cbr 960 ------- 2 2.0 3.0 14 14
+ 0.122272 2 3 cbr 960 ------- 2 2.0 3.0 29 29
- 0.122272 2 3 cbr 960 ------- 2 2.0 3.0 29 29
r 0.122288 2 3 cbr 960 ------- 2 2.0 3.0 15 15
+ 0.12304 2 3 cbr 960 ------- 2 2.0 3.0 30 30
- 0.12304 2 3 cbr 960 ------- 2 2.0 3.0 30 30
r 0.123056 2 3 cbr 960 ------- 2 2.0 3.0 16 16
+ 0.123808 2 3 cbr 960 ------- 2 2.0 3.0 31 31
- 0.123808 2 3 cbr 960 ------- 2 2.0 3.0 31 31
r 0.123824 2 3 cbr 960 ------- 2 2.0 3.0 17 17
+ 0.124576 2 3 cbr 960 ------- 2 2.0 3.0 32 32
- 0.124576 2 3 cbr 960 ------- 2 2.0 3.0 32 32
r 0.124592 2 3 cbr 960 ------- 2 2.0 3.0 18 18
+ 0.125344 2 3 cbr 960 ------- 2 2.0 3.0 33 33
- 0.125344 2 3 cbr 960 ------- 2 2.0 3.0 33 33
r 0.12536 2 3 cbr 960 ------- 2 2.0 3.0 19 19
+ 0.126112 2 3 cbr 960 ------- 2 2.0 3.0 34 34
- 0.126112 2 3 cbr 960 ------- 2 2.0 3.0 34 34
r 0.126128 2 3 cbr 960 ------- 2 2.0 3.0 20 20
+ 0.12688 2 3 cbr 960 ------- 2 2.0 3.0 35 35
- 0.12688 2 3 cbr 960 ------- 2 2.0 3.0 35 35
r 0.126896 2 3 cbr 960 ------- 2 2.0 3.0 21 21
+ 0.127648 2 3 cbr 960 ------- 2 2.0 3.0 36 36
- 0.127648 2 3 cbr 960 ------- 2 2.0 3.0 36 36
r 0.127664 2 3 cbr 960 ------- 2 2.0 3.0 22 22
+ 0.128416 2 3 cbr 960 ------- 2 2.0 3.0 37 37
- 0.128416 2 3 cbr 960 ------- 2 2.0 3.0 37 37
r 0.128432 2 3 cbr 960 ------- 2 2.0 3.0 23 23
+ 0.129184 2 3 cbr 960 ------- 2 2.0 3.0 38 38
- 0.129184 2 3 cbr 960 ------- 2 2.0 3.0 38 38
r 0.1292 2 3 cbr 960 ------- 2 2.0 3.0 24 24
+ 0.129952 2 3 cbr 960 ------- 2 2.0 3.0 39 39
- 0.129952 2 3 cbr 960 ------- 2 2.0 3.0 39 39
r 0.129968 2 3 cbr 960 ------- 2 2.0 3.0 25 25
+ 0.13072 2 3 cbr 960 ------- 2 2.0 3.0 40 40
- 0.13072 2 3 cbr 960 ------- 2 2.0 3.0 40 40
r 0.130736 2 3 cbr 960 ------- 2 2.0 3.0 26 26
+ 0.131488 2 3 cbr 960 ------- 2 2.0 3.0 41 41
- 0.131488 2 3 cbr 960 ------- 2 2.0 3.0 41 41
r 0.131504 2 3 cbr 960 ------- 2 2.0 3.0 27 27
+ 0.132256 2 3 cbr 960 ------- 2 2.0 3.0 42 42
- 0.132256 2 3 cbr 960 ------- 2 2.0 3.0 42 42
r 0.132272 2 3 cbr 960 ------- 2 2.0 3.0 28 28
+ 0.133024 2 3 cbr 960 ------- 2 2.0 3.0 43 43
- 0.133024 2 3 cbr 960 ------- 2 2.0 3.0 43 43
r 0.13304 2 3 cbr 960 ------- 2 2.0 3.0 29 29
+ 0.133792 2 3 cbr 960 ------- 2 2.0 3.0 44 44
- 0.133792 2 3 cbr 960 ------- 2 2.0 3.0 44 44
r 0.133808 2 3 cbr 960 ------- 2 2.0 3.0 30 30
+ 0.13456 2 3 cbr 960 ------- 2 2.0 3.0 45 45
- 0.13456 2 3 cbr 960 ------- 2 2.0 3.0 45 45
r 0.134576 2 3 cbr 960 ------- 2 2.0 3.0 31 31
+ 0.135328 2 3 cbr 960 ------- 2 2.0 3.0 46 46
- 0.135328 2 3 cbr 960 ------- 2 2.0 3.0 46 46
r 0.135344 2 3 cbr 960 ------- 2 2.0 3.0 32 32
+ 0.136096 2 3 cbr 960 ------- 2 2.0 3.0 47 47
- 0.136096 2 3 cbr 960 ------- 2 2.0 3.0 47 47
r 0.136112 2 3 cbr 960 ------- 2 2.0 3.0 33 33
+ 0.136864 2 3 cbr 960 ------- 2 2.0 3.0 48 48
- 0.136864 2 3 cbr 960 ------- 2 2.0 3.0 48 48
r 0.13688 2 3 cbr 960 ------- 2 2.0 3.0 34 34
+ 0.137632 2 3 cbr 960 ------- 2 2.0 3.0 49 49
- 0.137632 2 3 cbr 960 ------- 2 2.0 3.0 49 49
r 0.137648 2 3 cbr 960 ------- 2 2.0 3.0 35 35
+ 0.1384 2 3 cbr 960 ------- 2 2.0 3.0 50 50
- 0.1384 2 3 cbr 960 ------- 2 2.0 3.0 50 50
r 0.138416 2 3 cbr 960 ------- 2 2.0 3.0 36 36
+ 0.139168 2 3 cbr 960 ------- 2 2.0 3.0 51 51
- 0.139168 2 3 cbr 960 ------- 2 2.0 3.0 51 51
r 0.139184 2 3 cbr 960 ------- 2 2.0 3.0 37 37
+ 0.139936 2 3 cbr 960 ------- 2 2.0 3.0 52 52
- 0.139936 2 3 cbr 960 ------- 2 2.0 3.0 52 52
r 0.139952 2 3 cbr 960 ------- 2 2.0 3.0 38 38
+ 0.140704 2 3 cbr 960 ------- 2 2.0 3.0 53 53
- 0.140704 2 3 cbr 960 ------- 2 2.0 3.0 53 53
r 0.14072 2 3 cbr 960 ------- 2 2.0 3.0 39 39
+ 0.141472 2 3 cbr 960 ------- 2 2.0 3.0 54 54
- 0.141472 2 3 cbr 960 ------- 2 2.0 3.0 54 54
r 0.141488 2 3 cbr 960 ------- 2 2.0 3.0 40 40
+ 0.14224 2 3 cbr 960 ------- 2 2.0 3.0 55 55
- 0.14224 2 3 cbr 960 ------- 2 2.0 3.0 55 55
r 0.142256 2 3 cbr 960 ------- 2 2.0 3.0 41 41
+ 0.143008 2 3 cbr 960 ------- 2 2.0 3.0 56 56
- 0.143008 2 3 cbr 960 ------- 2 2.0 3.0 56 56
r 0.143024 2 3 cbr 960 ------- 2 2.0 3.0 42 42
+ 0.143776 2 3 cbr 960 ------- 2 2.0 3.0 57 57
- 0.143776 2 3 cbr 960 ------- 2 2.0 3.0 57 57
r 0.143792 2 3 cbr 960 ------- 2 2.0 3.0 43 43
+ 0.144544 2 3 cbr 960 ------- 2 2.0 3.0 58 58
- 0.144544 2 3 cbr 960 ------- 2 2.0 3.0 58 58
r 0.14456 2 3 cbr 960 ------- 2 2.0 3.0 44 44
+ 0.145312 2 3 cbr 960 ------- 2 2.0 3.0 59 59
- 0.145312 2 3 cbr 960 ------- 2 2.0 3.0 59 59
r 0.145328 2 3 cbr 960 ------- 2 2.0 3.0 45 45
+ 0.14608 2 3 cbr 960 ------- 2 2.0 3.0 60 60
- 0.14608 2 3 cbr 960 ------- 2 2.0 3.0 60 60
r 0.146096 2 3 cbr 960 ------- 2 2.0 3.0 46 46
+ 0.146848 2 3 cbr 960 ------- 2 2.0 3.0 61 61
- 0.146848 2 3 cbr 960 ------- 2 2.0 3.0 61 61
r 0.146864 2 3 cbr 960 ------- 2 2.0 3.0 47 47
+ 0.147616 2 3 cbr 960 ------- 2 2.0 3.0 62 62
- 0.147616 2 3 cbr 960 ------- 2 2.0 3.0 62 62
r 0.147632 2 3 cbr 960 ------- 2 2.0 3.0 48 48
+ 0.148384 2 3 cbr 960 ------- 2 2.0 3.0 63 63
- 0.148384 2 3 cbr 960 ------- 2 2.0 3.0 63 63
r 0.1484 2 3 cbr 960 ------- 2 2.0 3.0 49 49
+ 0.149152 2 3 cbr 960 ------- 2 2.0 3.0 64 64
- 0.149152 2 3 cbr 960 ------- 2 2.0 3.0 64 64
r 0.149168 2 3 cbr 960 ------- 2 2.0 3.0 50 50
+ 0.14992 2 3 cbr 960 ------- 2 2.0 3.0 65 65
- 0.14992 2 3 cbr 960 ------- 2 2.0 3.0 65 65
r 0.149936 2 3 cbr 960 ------- 2 2.0 3.0 51 51
+ 0.150688 2 3 cbr 960 ------- 2 2.0 3.0 66 66
- 0.150688 2 3 cbr 960 ------- 2 2.0 3.0 66 66
r 0.150704 2 3 cbr 960 ------- 2 2.0 3.0 52 52
+ 0.151456 2 3 cbr 960 ------- 2 2.0 3.0 67 67
- 0.151456 2 3 cbr 960 ------- 2 2.0 3.0 67 67
r 0.151472 2 3 cbr 960 ------- 2 2.0 3.0 53 53
+ 0.152224 2 3 cbr 960 ------- 2 2.0 3.0 68 68
- 0.152224 2 3 cbr 960 ------- 2 2.0 3.0 68 68
r 0.15224 2 3 cbr 960 ------- 2 2.0 3.0 54 54
+ 0.152992 2 3 cbr 960 ------- 2 2.0 3.0 69 69
- 0.152992 2 3 cbr 960 ------- 2 2.0 3.0 69 69
r 0.153008 2 3 cbr 960 ------- 2 2.0 3.0 55 55
+ 0.15376 2 3 cbr 960 ------- 2 2.0 3.0 70 70
- 0.15376 2 3 cbr 960 ------- 2 2.0 3.0 70 70
r 0.153776 2 3 cbr 960 ------- 2 2.0 3.0 56 56
+ 0.154528 2 3 cbr 960 ------- 2 2.0 3.0 71 71
- 0.154528 2 3 cbr 960 ------- 2 2.0 3.0 71 71
r 0.154544 2 3 cbr 960 ------- 2 2.0 3.0 57 57
+ 0.155296 2 3 cbr 960 ------- 2 2.0 3.0 72 72
- 0.155296 2 3 cbr 960 ------- 2 2.0 3.0 72 72
r 0.155312 2 3 cbr 960 ------- 2 2.0 3.0 58 58
+ 0.156064 2 3 cbr 960 ------- 2 2.0 3.0 73 73
- 0.156064 2 3 cbr 960 ------- 2 2.0 3.0 73 73
r 0.15608 2 3 cbr 960 ------- 2 2.0 3.0 59 59
+ 0.156832 2 3 cbr 960 ------- 2 2.0 3.0 74 74
- 0.156832 2 3 cbr 960 ------- 2 2.0 3.0 74 74
r 0.156848 2 3 cbr 960 ------- 2 2.0 3.0 60 60
+ 0.1576 2 3 cbr 960 ------- 2 2.0 3.0 75 75
- 0.1576 2 3 cbr 960 ------- 2 2.0 3.0 75 75
r 0.157616 2 3 cbr 960 ------- 2 2.0 3.0 61 61
+ 0.158368 2 3 cbr 960 ------- 2 2.0 3.0 76 76
- 0.158368 2 3 cbr 960 ------- 2 2.0 3.0 76 76
r 0.158384 2 3 cbr 960 ------- 2 2.0 3.0 62 62
+ 0.159136 2 3 cbr 960 ------- 2 2.0 3.0 77 77
- 0.159136 2 3 cbr 960 ------- 2 2.0 3.0 77 77
r 0.159152 2 3 cbr 960 ------- 2 2.0 3.0 63 63
+ 0.159904 2 3 cbr 960 ------- 2 2.0 3.0 78 78
- 0.159904 2 3 cbr 960 ------- 2 2.0 3.0 78 78
r 0.15992 2 3 cbr 960 ------- 2 2.0 3.0 64 64
+ 0.160672 2 3 cbr 960 ------- 2 2.0 3.0 79 79
- 0.160672 2 3 cbr 960 ------- 2 2.0 3.0 79 79
r 0.160688 2 3 cbr 960 ------- 2 2.0 3.0 65 65
+ 0.16144 2 3 cbr 960 ------- 2 2.0 3.0 80 80
- 0.16144 2 3 cbr 960 ------- 2 2.0 3.0 80 80
r 0.161456 2 3 cbr 960 ------- 2 2.0 3.0 66 66
+ 0.162208 2 3 cbr 960 ------- 2 2.0 3.0 81 81
- 0.162208 2 3 cbr 960 ------- 2 2.0 3.0 81 81
r 0.162224 2 3 cbr 960 ------- 2 2.0 3.0 67 67
+ 0.162976 2 3 cbr 960 ------- 2 2.0 3.0 82 82
- 0.162976 2 3 cbr 960 ------- 2 2.0 3.0 82 82
r 0.162992 2 3 cbr 960 ------- 2 2.0 3.0 68 68
+ 0.163744 2 3 cbr 960 ------- 2 2.0 3.0 83 83
- 0.163744 2 3 cbr 960 ------- 2 2.0 3.0 83 83
r 0.16376 2 3 cbr 960 ------- 2 2.0 3.0 69 69
+ 0.164512 2 3 cbr 960 ------- 2 2.0 3.0 84 84
- 0.164512 2 3 cbr 960 ------- 2 2.0 3.0 84 84
r 0.164528 2 3 cbr 960 ------- 2 2.0 3.0 70 70
+ 0.16528 2 3 cbr 960 ------- 2 2.0 3.0 85 85
- 0.16528 2 3 cbr 960 ------- 2 2.0 3.0 85 85
r 0.165296 2 3 cbr 960 ------- 2 2.0 3.0 71 71
+ 0.166048 2 3 cbr 960 ------- 2 2.0 3.0 86 86
- 0.166048 2 3 cbr 960 ------- 2 2.0 3.0 86 86
r 0.166064 2 3 cbr 960 ------- 2 2.0 3.0 72 72
+ 0.166816 2 3 cbr 960 ------- 2 2.0 3.0 87 87
- 0.166816 2 3 cbr 960 ------- 2 2.0 3.0 87 87
r 0.166832 2 3 cbr 960 ------- 2 2.0 3.0 73 73
+ 0.167584 2 3 cbr 960 ------- 2 2.0 3.0 88 88
- 0.167584 2 3 cbr 960 ------- 2 2.0 3.0 88 88
r 0.1676 2 3 cbr 960 ------- 2 2.0 3.0 74 74
+ 0.168352 2 3 cbr 960 ------- 2 2.0 3.0 89 89
- 0.168352 2 3 cbr 960 ------- 2 2.0 3.0 89 89
r 0.168368 2 3 cbr 960 ------- 2 2.0 3.0 75 75
+ 0.16912 2 3 cbr 960 ------- 2 2.0 3.0 90 90
- 0.16912 2 3 cbr 960 ------- 2 2.0 3.0 90 90
r 0.169136 2 3 cbr 960 ------- 2 2.0 3.0 76 76
+ 0.169888 2 3 cbr 960 ------- 2 2.0 3.0 91 91
- 0.169888 2 3 cbr 960 ------- 2 2.0 3.0 91 91
r 0.169904 2 3 cbr 960 ------- 2 2.0 3.0 77 77
+ 0.170656 2 3 cbr 960 ------- 2 2.0 3.0 92 92
- 0.170656 2 3 cbr 960 ------- 2 2.0 3.0 92 92
r 0.170672 2 3 cbr 960 ------- 2 2.0 3.0 78 78
+ 0.171424 2 3 cbr 960 ------- 2 2.0 3.0 93 93
- 0.171424 2 3 cbr 960 ------- 2 2.0 3.0 93 93
r 0.17144 2 3 cbr 960 ------- 2 2.0 3.0 79 79
+ 0.172192 2 3 cbr 960 ------- 2 2.0 3.0 94 94
- 0.172192 2 3 cbr 960 ------- 2 2.0 3.0 94 94
r 0.172208 2 3 cbr 960 ------- 2 2.0 3.0 80 80
+ 0.17296 2 3 cbr 960 ------- 2 2.0 3.0 95 95
- 0.17296 2 3 cbr 960 ------- 2 2.0 3.0 95 95
r 0.172976 2 3 cbr 960 ------- 2 2.0 3.0 81 81
+ 0.173728 2 3 cbr 960 ------- 2 2.0 3.0 96 96
- 0.173728 2 3 cbr 960 ------- 2 2.0 3.0 96 96
r 0.173744 2 3 cbr 960 ------- 2 2.0 3.0 82 82
+ 0.174496 2 3 cbr 960 ------- 2 2.0 3.0 97 97
- 0.174496 2 3 cbr 960 ------- 2 2.0 3.0 97 97
r 0.174512 2 3 cbr 960 ------- 2 2.0 3.0 83 83
+ 0.175264 2 3 cbr 960 ------- 2 2.0 3.0 98 98
- 0.175264 2 3 cbr 960 ------- 2 2.0 3.0 98 98
r 0.17528 2 3 cbr 960 ------- 2 2.0 3.0 84 84
+ 0.176032 2 3 cbr 960 ------- 2 2.0 3.0 99 99
- 0.176032 2 3 cbr 960 ------- 2 2.0 3.0 99 99
r 0.176048 2 3 cbr 960 ------- 2 2.0 3.0 85 85
+ 0.1768 2 3 cbr 960 ------- 2 2.0 3.0 100 100
- 0.1768 2 3 cbr 960 ------- 2 2.0 3.0 100 100
r 0.176816 2 3 cbr 960 ------- 2 2.0 3.0 86 86
+ 0.177568 2 3 cbr 960 ------- 2 2.0 3.0 101 101
- 0.177568 2 3 cbr 960 ------- 2 2.0 3.0 101 101
r 0.177584 2 3 cbr 960 ------- 2 2.0 3.0 87 87
+ 0.178336 2 3 cbr 960 ------- 2 2.0 3.0 102 102
- 0.178336 2 3 cbr 960 ------- 2 2.0 3.0 102 102
r 0.178352 2 3 cbr 960 ------- 2 2.0 3.0 88 88
+ 0.179104 2 3 cbr 960 ------- 2 2.0 3.0 103 103
- 0.179104 2 3 cbr 960 ------- 2 2.0 3.0 103 103
r 0.17912 2 3 cbr 960 ------- 2 2.0 3.0 89 89
+ 0.179872 2 3 cbr 960 ------- 2 2.0 3.0 104 104
- 0.179872 2 3 cbr 960 ------- 2 2.0 3.0 104 104
r 0.179888 2 3 cbr 960 ------- 2 2.0 3.0 90 90
+ 0.18064 2 3 cbr 960 ------- 2 2.0 3.0 105 105
- 0.18064 2 3 cbr 960 ------- 2 2.0 3.0 105 105
r 0.180656 2 3 cbr 960 ------- 2 2.0 3.0 91 91
+ 0.181408 2 3 cbr 960 ------- 2 2.0 3.0 106 106
- 0.181408 2 3 cbr 960 ------- 2 2.0 3.0 106 106
r 0.181424 2 3 cbr 960 ------- 2 2.0 3.0 92 92
+ 0.182176 2 3 cbr 960 ------- 2 2.0 3.0 107 107
- 0.182176 2 3 cbr 960 ------- 2 2.0 3.0 107 107
r 0.182192 2 3 cbr 960 ------- 2 2.0 3.0 93 93
+ 0.182944 2 3 cbr 960 ------- 2 2.0 3.0 108 108
- 0.182944 2 3 cbr 960 ------- 2 2.0 3.0 108 108
r 0.18296 2 3 cbr 960 ------- 2 2.0 3.0 94 94
+ 0.183712 2 3 cbr 960 ------- 2 2.0 3.0 109 109
- 0.183712 2 3 cbr 960 ------- 2 2.0 3.0 109 109
r 0.183728 2 3 cbr 960 ------- 2 2.0 3.0 95 95
+ 0.18448 2 3 cbr 960 ------- 2 2.0 3.0 110 110
- 0.18448 2 3 cbr 960 ------- 2 2.0 3.0 110 110
r 0.184496 2 3 cbr 960 ------- 2 2.0 3.0 96 96
+ 0.185248 2 3 cbr 960 ------- 2 2.0 3.0 111 111
- 0.185248 2 3 cbr 960 ------- 2 2.0 3.0 111 111
r 0.185264 2 3 cbr 960 ------- 2 2.0 3.0 97 97
+ 0.186016 2 3 cbr 960 ------- 2 2.0 3.0 112 112
- 0.186016 2 3 cbr 960 ------- 2 2.0 3.0 112 112
r 0.186032 2 3 cbr 960 ------- 2 2.0 3.0 98 98
+ 0.186784 2 3 cbr 960 ------- 2 2.0 3.0 113 113
- 0.186784 2 3 cbr 960 ------- 2 2.0 3.0 113 113
r 0.1868 2 3 cbr 960 ------- 2 2.0 3.0 99 99
+ 0.187552 2 3 cbr 960 ------- 2 2.0 3.0 114 114
- 0.187552 2 3 cbr 960 ------- 2 2.0 3.0 114 114
r 0.187568 2 3 cbr 960 ------- 2 2.0 3.0 100 100
+ 0.18832 2 3 cbr 960 ------- 2 2.0 3.0 115 115
- 0.18832 2 3 cbr 960 ------- 2 2.0 3.0 115 115
r 0.188336 2 3 cbr 960 ------- 2 2.0 3.0 101 101
+ 0.189088 2 3 cbr 960 ------- 2 2.0 3.0 116 116
- 0.189088 2 3 cbr 960 ------- 2 2.0 3.0 116 116
r 0.189104 2 3 cbr 960 ------- 2 2.0 3.0 102 102
+ 0.189856 2 3 cbr 960 ------- 2 2.0 3.0 117 117
- 0.189856 2 3 cbr 960 ------- 2 2.0 3.0 117 117
r 0.189872 2 3 cbr 960 ------- 2 2.0 3.0 103 103
+ 0.190624 2 3 cbr 960 ------- 2 2.0 3.0 118 118
- 0.190624 2 3 cbr 960 ------- 2 2.0 3.0 118 118
r 0.19064 2 3 cbr 960 ------- 2 2.0 3.0 104 104
+ 0.191392 2 3 cbr 960 ------- 2 2.0 3.0 119 119
- 0.191392 2 3 cbr 960 ------- 2 2.0 3.0 119 119
r 0.191408 2 3 cbr 960 ------- 2 2.0 3.0 105 105
+ 0.19216 2 3 cbr 960 ------- 2 2.0 3.0 120 120
- 0.19216 2 3 cbr 960 ------- 2 2.0 3.0 120 120
r 0.192176 2 3 cbr 960 ------- 2 2.0 3.0 106 106
+ 0.192928 2 3 cbr 960 ------- 2 2.0 3.0 121 121
- 0.192928 2 3 cbr 960 ------- 2 2.0 3.0 121 121
r 0.192944 2 3 cbr 960 ------- 2 2.0 3.0 107 107
+ 0.193696 2 3 cbr 960 ------- 2 2.0 3.0 122 122
- 0.193696 2 3 cbr 960 ------- 2 2.0 3.0 122 122
r 0.193712 2 3 cbr 960 ------- 2 2.0 3.0 108 108
+ 0.194464 2 3 cbr 960 ------- 2 2.0 3.0 123 123
- 0.194464 2 3 cbr 960 ------- 2 2.0 3.0 123 123
r 0.19448 2 3 cbr 960 ------- 2 2.0 3.0 109 109
+ 0.195232 2 3 cbr 960 ------- 2 2.0 3.0 124 124
- 0.195232 2 3 cbr 960 ------- 2 2.0 3.0 124 124
r 0.195248 2 3 cbr 960 ------- 2 2.0 3.0 110 110
+ 0.196 2 3 cbr 960 ------- 2 2.0 3.0 125 125
- 0.196 2 3 cbr 960 ------- 2 2.0 3.0 125 125
r 0.196016 2 3 cbr 960 ------- 2 2.0 3.0 111 111
+ 0.196768 2 3 cbr 960 ------- 2 2.0 3.0 126 126
- 0.196768 2 3 cbr 960 ------- 2 2.0 3.0 126 126
r 0.196784 2 3 cbr 960 ------- 2 2.0 3.0 112 112
+ 0.197536 2 3 cbr 960 ------- 2 2.0 3.0 127 127
- 0.197536 2 3 cbr 960 ------- 2 2.0 3.0 127 127
r 0.197552 2 3 cbr 960 ------- 2 2.0 3.0 113 113
+ 0.198304 2 3 cbr 960 ------- 2 2.0 3.0 128 128
- 0.198304 2 3 cbr 960 ------- 2 2.0 3.0 128 128
r 0.19832 2 3 cbr 960 ------- 2 2.0 3.0 114 114
+ 0.199072 2 3 cbr 960 ------- 2 2.0 3.0 129 129
- 0.199072 2 3 cbr 960 ------- 2 2.0 3.0 129 129
r 0.199088 2 3 cbr 960 ------- 2 2.0 3.0 115 115
+ 0.19984 2 3 cbr 960 ------- 2 2.0 3.0 130 130
- 0.19984 2 3 cbr 960 ------- 2 2.0 3.0 130 130
r 0.199856 2 3 cbr 960 ------- 2 2.0 3.0 116 116
+ 0.200608 2 3 cbr 960 ------- 2 2.0 3.0 131 131
- 0.200608 2 3 cbr 960 ------- 2 2.0 3.0 131 131
r 0.200624 2 3 cbr 960 ------- 2 2.0 3.0 117 117
+ 0.201376 2 3 cbr 960 ------- 2 2.0 3.0 132 132
- 0.201376 2 3 cbr 960 ------- 2 2.0 3.0 132 132
r 0.201392 2 3 cbr 960 ------- 2 2.0 3.0 118 118
+ 0.202144 2 3 cbr 960 ------- 2 2.0 3.0 133 133
- 0.202144 2 3 cbr 960 ------- 2 2.0 3.0 133 133
r 0.20216 2 3 cbr 960 ------- 2 2.0 3.0 119 119
+ 0.202912 2 3 cbr 960 ------- 2 2.0 3.0 134 134
- 0.202912 2 3 cbr 960 ------- 2 2.0 3.0 134 134
r 0.202928 2 3 cbr 960 ------- 2 2.0 3.0 120 120
+ 0.20368 2 3 cbr 960 ------- 2 2.0 3.0 135 135
- 0.20368 2 3 cbr 960 ------- 2 2.0 3.0 135 135
r 0.203696 2 3 cbr 960 ------- 2 2.0 3.0 121 121
+ 0.204448 2 3 cbr 960 ------- 2 2.0 3.0 136 136
- 0.204448 2 3 cbr 960 ------- 2 2.0 3.0 136 136
r 0.204464 2 3 cbr 960 ------- 2 2.0 3.0 122 122
+ 0.205216 2 3 cbr 960 ------- 2 2.0 3.0 137 137
- 0.205216 2 3 cbr 960 ------- 2 2.0 3.0 137 137
r 0.205232 2 3 cbr 960 ------- 2 2.0 3.0 123 123
+ 0.205984 2 3 cbr 960 ------- 2 2.0 3.0 138 138
- 0.205984 2 3 cbr 960 ------- 2 2.0 3.0 138 138
r 0.206 2 3 cbr 960 ------- 2 2.0 3.0 124 124
+ 0.206752 2 3 cbr 960 ------- 2 2.0 3.0 139 139
- 0.206752 2 3 cbr 960 ------- 2 2.0 3.0 139 139
r 0.206768 2 3 cbr 960 ------- 2 2.0 3.0 125 125
+ 0.20752 2 3 cbr 960 ------- 2 2.0 3.0 140 140
- 0.20752 2 3 cbr 960 ------- 2 2.0 3.0 140 140
r 0.207536 2 3 cbr 960 ------- 2 2.0 3.0 126 126
+ 0.208288 2 3 cbr 960 ------- 2 2.0 3.0 141 141
- 0.208288 2 3 cbr 960 ------- 2 2.0 3.0 141 141
r 0.208304 2 3 cbr 960 ------- 2 2.0 3.0 127 127
+ 0.209056 2 3 cbr 960 ------- 2 2.0 3.0 142 142
- 0.209056 2 3 cbr 960 ------- 2 2.0 3.0 142 142
r 0.209072 2 3 cbr 960 ------- 2 2.0 3.0 128 128
+ 0.209824 2 3 cbr 960 ------- 2 2.0 3.0 143 143
- 0.209824 2 3 cbr 960 ------- 2 2.0 3.0 143 143
r 0.20984 2 3 cbr 960 ------- 2 2.0 3.0 129 129
+ 0.210592 2 3 cbr 960 ------- 2 2.0 3.0 144 144
- 0.210592 2 3 cbr 960 ------- 2 2.0 3.0 144 144
r 0.210608 2 3 cbr 960 ------- 2 2.0 3.0 130 130
+ 0.21136 2 3 cbr 960 ------- 2 2.0 3.0 145 145
- 0.21136 2 3 cbr 960 ------- 2 2.0 3.0 145 145
r 0.211376 2 3 cbr 960 ------- 2 2.0 3.0 131 131
+ 0.212128 2 3 cbr 960 ------- 2 2.0 3.0 146 146
- 0.212128 2 3 cbr 960 ------- 2 2.0 3.0 146 146
r 0.212144 2 3 cbr 960 ------- 2 2.0 3.0 132 132
+ 0.212896 2 3 cbr 960 ------- 2 2.0 3.0 147 147
- 0.212896 2 3 cbr 960 ------- 2 2.0 3.0 147 147
r 0.212912 2 3 cbr 960 ------- 2 2.0 3.0 133 133
+ 0.213664 2 3 cbr 960 ------- 2 2.0 3.0 148 148
- 0.213664 2 3 cbr 960 ------- 2 2.0 3.0 148 148
r 0.21368 2 3 cbr 960 ------- 2 2.0 3.0 134 134
+ 0.214432 2 3 cbr 960 ------- 2 2.0 3.0 149 149
- 0.214432 2 3 cbr 960 ------- 2 2.0 3.0 149 149
r 0.214448 2 3 cbr 960 ------- 2 2.0 3.0 135 135
+ 0.2152 2 3 cbr 960 ------- 2 2.0 3.0 150 150
- 0.2152 2 3 cbr 960 ------- 2 2.0 3.0 150 150
r 0.215216 2 3 cbr 960 ------- 2 2.0 3.0 136 136
+ 0.215968 2 3 cbr 960 ------- 2 2.0 3.0 151 151
- 0.215968 2 3 cbr 960 ------- 2 2.0 3.0 151 151
r 0.215984 2 3 cbr 960 ------- 2 2.0 3.0 137 137
+ 0.216736 2 3 cbr 960 ------- 2 2.0 3.0 152 152
- 0.216736 2 3 cbr 960 ------- 2 2.0 3.0 152 152
r 0.216752 2 3 cbr 960 ------- 2 2.0 3.0 138 138
+ 0.217504 2 3 cbr 960 ------- 2 2.0 3.0 153 153
- 0.217504 2 3 cbr 960 ------- 2 2.0 3.0 153 153
r 0.21752 2 3 cbr 960 ------- 2 2.0 3.0 139 139
+ 0.218272 2 3 cbr 960 ------- 2 2.0 3.0 154 154
- 0.218272 2 3 cbr 960 ------- 2 2.0 3.0 154 154
r 0.218288 2 3 cbr 960 ------- 2 2.0 3.0 140 140
+ 0.21904 2 3 cbr 960 ------- 2 2.0 3.0 155 155
- 0.21904 2 3 cbr 960 ------- 2 2.0 3.0 155 155
r 0.219056 2 3 cbr 960 ------- 2 2.0 3.0 141 141
+ 0.219808 2 3 cbr 960 ------- 2 2.0 3.0 156 156
- 0.219808 2 3 cbr 960 ------- 2 2.0 3.0 156 156
r 0.219824 2 3 cbr 960 ------- 2 2.0 3.0 142 142
+ 0.220576 2 3 cbr 960 ------- 2 2.0 3.0 157 157
- 0.220576 2 3 cbr 960 ------- 2 2.0 3.0 157 157
r 0.220592 2 3 cbr 960 ------- 2 2.0 3.0 143 143
+ 0.221344 2 3 cbr 960 ------- 2 2.0 3.0 158 158
- 0.221344 2 3 cbr 960 ------- 2 2.0 3.0 158 158
r 0.22136 2 3 cbr 960 ------- 2 2.0 3.0 144 144
+ 0.222112 2 3 cbr 960 ------- 2 2.0 3.0 159 159
- 0.222112 2 3 cbr 960 ------- 2 2.0 3.0 159 159
r 0.222128 2 3 cbr 960 ------- 2 2.0 3.0 145 145
+ 0.22288 2 3 cbr 960 ------- 2 2.0 3.0 160 160
- 0.22288 2 3 cbr 960 ------- 2 2.0 3.0 160 160
r 0.222896 2 3 cbr 960 ------- 2 2.0 3.0 146 146
+ 0.223648 2 3 cbr 960 ------- 2 2.0 3.0 161 161
- 0.223648 2 3 cbr 960 ------- 2 2.0 3.0 161 161
r 0.223664 2 3 cbr 960 ------- 2 2.0 3.0 147 147
+ 0.224416 2 3 cbr 960 ------- 2 2.0 3.0 162 162
- 0.224416 2 3 cbr 960 ------- 2 2.0 3.0 162 162
r 0.224432 2 3 cbr 960 ------- 2 2.0 3.0 148 148
+ 0.225184 2 3 cbr 960 ------- 2 2.0 3.0 163 163
- 0.225184 2 3 cbr 960 ------- 2 2.0 3.0 163 163
r 0.2252 2 3 cbr 960 ------- 2 2.0 3.0 149 149
+ 0.225952 2 3 cbr 960 ------- 2 2.0 3.0 164 164
- 0.225952 2 3 cbr 960 ------- 2 2.0 3.0 164 164
r 0.225968 2 3 cbr 960 ------- 2 2.0 3.0 150 150
+ 0.22672 2 3 cbr 960 ------- 2 2.0 3.0 165 165
- 0.22672 2 3 cbr 960 ------- 2 2.0 3.0 165 165
r 0.226736 2 3 cbr 960 ------- 2 2.0 3.0 151 151
+ 0.227488 2 3 cbr 960 ------- 2 2.0 3.0 166 166
- 0.227488 2 3 cbr 960 ------- 2 2.0 3.0 166 166
r 0.227504 2 3 cbr 960 ------- 2 2.0 3.0 152 152
+ 0.228256 2 3 cbr 960 ------- 2 2.0 3.0 167 167
- 0.228256 2 3 cbr 960 ------- 2 2.0 3.0 167 167
r 0.228272 2 3 cbr 960 ------- 2 2.0 3.0 153 153
+ 0.229024 2 3 cbr 960 ------- 2 2.0 3.0 168 168
- 0.229024 2 3 cbr 960 ------- 2 2.0 3.0 168 168
r 0.22904 2 3 cbr 960 ------- 2 2.0 3.0 154 154
+ 0.229792 2 3 cbr 960 ------- 2 2.0 3.0 169 169
- 0.229792 2 3 cbr 960 ------- 2 2.0 3.0 169 169
r 0.229808 2 3 cbr 960 ------- 2 2.0 3.0 155 155
+ 0.23056 2 3 cbr 960 ------- 2 2.0 3.0 170 170
- 0.23056 2 3 cbr 960 ------- 2 2.0 3.0 170 170
r 0.230576 2 3 cbr 960 ------- 2 2.0 3.0 156 156
+ 0.231328 2 3 cbr 960 ------- 2 2.0 3.0 171 171
- 0.231328 2 3 cbr 960 ------- 2 2.0 3.0 171 171
r 0.231344 2 3 cbr 960 ------- 2 2.0 3.0 157 157
+ 0.232096 2 3 cbr 960 ------- 2 2.0 3.0 172 172
- 0.232096 2 3 cbr 960 ------- 2 2.0 3.0 172 172
r 0.232112 2 3 cbr 960 ------- 2 2.0 3.0 158 158
+ 0.232864 2 3 cbr 960 ------- 2 2.0 3.0 173 173
- 0.232864 2 3 cbr 960 ------- 2 2.0 3.0 173 173
r 0.23288 2 3 cbr 960 ------- 2 2.0 3.0 159 159
+ 0.233632 2 3 cbr 960 ------- 2 2.0 3.0 174 174
- 0.233632 2 3 cbr 960 ------- 2 2.0 3.0 174 174
r 0.233648 2 3 cbr 960 ------- 2 2.0 3.0 160 160
+ 0.2344 2 3 cbr 960 ------- 2 2.0 3.0 175 175
- 0.2344 2 3 cbr 960 ------- 2 2.0 3.0 175 175
r 0.234416 2 3 cbr 960 ------- 2 2.0 3.0 161 161
+ 0.235168 2 3 cbr 960 ------- 2 2.0 3.0 176 176
- 0.235168 2 3 cbr 960 ------- 2 2.0 3.0 176 176
r 0.235184 2 3 cbr 960 ------- 2 2.0 3.0 162 162
+ 0.235936 2 3 cbr 960 ------- 2 2.0 3.0 177 177
- 0.235936 2 3 cbr 960 ------- 2 2.0 3.0 177 177
r 0.235952 2 3 cbr 960 ------- 2 2.0 3.0 163 163
+ 0.236704 2 3 cbr 960 ------- 2 2.0 3.0 178 178
- 0.236704 2 3 cbr 960 ------- 2 2.0 3.0 178 178
r 0.23672 2 3 cbr 960 ------- 2 2.0 3.0 164 164
+ 0.237472 2 3 cbr 960 ------- 2 2.0 3.0 179 179
- 0.237472 2 3 cbr 960 ------- 2 2.0 3.0 179 179
r 0.237488 2 3 cbr 960 ------- 2 2.0 3.0 165 165
+ 0.23824 2 3 cbr 960 ------- 2 2.0 3.0 180 180
- 0.23824 2 3 cbr 960 ------- 2 2.0 3.0 180 180
r 0.238256 2 3 cbr 960 ------- 2 2.0 3.0 166 166
+ 0.239008 2 3 cbr 960 ------- 2 2.0 3.0 181 181
- 0.239008 2 3 cbr 960 ------- 2 2.0 3.0 181 181
r 0.239024 2 3 cbr 960 ------- 2 2.0 3.0 167 167
+ 0.239776 2 3 cbr 960 ------- 2 2.0 3.0 182 182
- 0.239776 2 3 cbr 960 ------- 2 2.0 3.0 182 182
r 0.239792 2 3 cbr 960 ------- 2 2.0 3.0 168 168
+ 0.240544 2 3 cbr 960 ------- 2 2.0 3.0 183 183
- 0.240544 2 3 cbr 960 ------- 2 2.0 3.0 183 183
r 0.24056 2 3 cbr 960 ------- 2 2.0 3.0 169 169
+ 0.241312 2 3 cbr 960 ------- 2 2.0 3.0 184 184
- 0.241312 2 3 cbr 960 ------- 2 2.0 3.0 184 184
r 0.241328 2 3 cbr 960 ------- 2 2.0 3.0 170 170
+ 0.24208 2 3 cbr 960 ------- 2 2.0 3.0 185 185
- 0.24208 2 3 cbr 960 ------- 2 2.0 3.0 185 185
r 0.242096 2 3 cbr 960 ------- 2 2.0 3.0 171 171
+ 0.242848 2 3 cbr 960 ------- 2 2.0 3.0 186 186
- 0.242848 2 3 cbr 960 ------- 2 2.0 3.0 186 186
r 0.242864 2 3 cbr 960 ------- 2 2.0 3.0 172 172
+ 0.243616 2 3 cbr 960 ------- 2 2.0 3.0 187 187
- 0.243616 2 3 cbr 960 ------- 2 2.0 3.0 187 187
r 0.243632 2 3 cbr 960 ------- 2 2.0 3.0 173 173
+ 0.244384 2 3 cbr 960 ------- 2 2.0 3.0 188 188
- 0.244384 2 3 cbr 960 ------- 2 2.0 3.0 188 188
r 0.2444 2 3 cbr 960 ------- 2 2.0 3.0 174 174
+ 0.245152 2 3 cbr 960 ------- 2 2.0 3.0 189 189
- 0.245152 2 3 cbr 960 ------- 2 2.0 3.0 189 189
r 0.245168 2 3 cbr 960 ------- 2 2.0 3.0 175 175
+ 0.24592 2 3 cbr 960 ------- 2 2.0 3.0 190 190
- 0.24592 2 3 cbr 960 ------- 2 2.0 3.0 190 190
r 0.245936 2 3 cbr 960 ------- 2 2.0 3.0 176 176
+ 0.246688 2 3 cbr 960 ------- 2 2.0 3.0 191 191
- 0.246688 2 3 cbr 960 ------- 2 2.0 3.0 191 191
r 0.246704 2 3 cbr 960 ------- 2 2.0 3.0 177 177
+ 0.247456 2 3 cbr 960 ------- 2 2.0 3.0 192 192
- 0.247456 2 3 cbr 960 ------- 2 2.0 3.0 192 192
r 0.247472 2 3 cbr 960 ------- 2 2.0 3.0 178 178
+ 0.248224 2 3 cbr 960 ------- 2 2.0 3.0 193 193
- 0.248224 2 3 cbr 960 ------- 2 2.0 3.0 193 193
r 0.24824 2 3 cbr 960 ------- 2 2.0 3.0 179 179
+ 0.248992 2 3 cbr 960 ------- 2 2.0 3.0 194 194
- 0.248992 2 3 cbr 960 ------- 2 2.0 3.0 194 194
r 0.249008 2 3 cbr 960 ------- 2 2.0 3.0 180 180
+ 0.24976 2 3 cbr 960 ------- 2 2.0 3.0 195 195
- 0.24976 2 3 cbr 960 ------- 2 2.0 3.0 195 195
r 0.249776 2 3 cbr 960 ------- 2 2.0 3.0 181 181
+ 0.250528 2 3 cbr 960 ------- 2 2.0 3.0 196 196
- 0.250528 2 3 cbr 960 ------- 2 2.0 3.0 196 196
r 0.250544 2 3 cbr 960 ------- 2 2.0 3.0 182 182
+ 0.251296 2 3 cbr 960 ------- 2 2.0 3.0 197 197
- 0.251296 2 3 cbr 960 ------- 2 2.0 3.0 197 197
r 0.251312 2 3 cbr 960 ------- 2 2.0 3.0 183 183
+ 0.252064 2 3 cbr 960 ------- 2 2.0 3.0 198 198
- 0.252064 2 3 cbr 960 ------- 2 2.0 3.0 198 198
r 0.25208 2 3 cbr 960 ------- 2 2.0 3.0 184 184
+ 0.252832 2 3 cbr 960 ------- 2 2.0 3.0 199 199
- 0.252832 2 3 cbr 960 ------- 2 2.0 3.0 199 199
r 0.252848 2 3 cbr 960 ------- 2 2.0 3.0 185 185
+ 0.2536 2 3 cbr 960 ------- 2 2.0 3.0 200 200
- 0.2536 2 3 cbr 960 ------- 2 2.0 3.0 200 200
r 0.253616 2 3 cbr 960 ------- 2 2.0 3.0 186 186
+ 0.254368 2 3 cbr 960 ------- 2 2.0 3.0 201 201
- 0.254368 2 3 cbr 960 ------- 2 2.0 3.0 201 201
r 0.254384 2 3 cbr 960 ------- 2 2.0 3.0 187 187
+ 0.255136 2 3 cbr 960 ------- 2 2.0 3.0 202 202
- 0.255136 2 3 cbr 960 ------- 2 2.0 3.0 202 202
r 0.255152 2 3 cbr 960 ------- 2 2.0 3.0 188 188
+ 0.255904 2 3 cbr 960 ------- 2 2.0 3.0 203 203
- 0.255904 2 3 cbr 960 ------- 2 2.0 3.0 203 203
r 0.25592 2 3 cbr 960 ------- 2 2.0 3.0 189 189
+ 0.256672 2 3 cbr 960 ------- 2 2.0 3.0 204 204
- 0.256672 2 3 cbr 960 ------- 2 2.0 3.0 204 204
r 0.256688 2 3 cbr 960 ------- 2 2.0 3.0 190 190
+ 0.25744 2 3 cbr 960 ------- 2 2.0 3.0 205 205
- 0.25744 2 3 cbr 960 ------- 2 2.0 3.0 205 205
r 0.257456 2 3 cbr 960 ------- 2 2.0 3.0 191 191
+ 0.258208 2 3 cbr 960 ------- 2 2.0 3.0 206 206
- 0.258208 2 3 cbr 960 ------- 2 2.0 3.0 206 206
r 0.258224 2 3 cbr 960 ------- 2 2.0 3.0 192 192
+ 0.258976 2 3 cbr 960 ------- 2 2.0 3.0 207 207
- 0.258976 2 3 cbr 960 ------- 2 2.0 3.0 207 207
r 0.258992 2 3 cbr 960 ------- 2 2.0 3.0 193 193
+ 0.259744 2 3 cbr 960 ------- 2 2.0 3.0 208 208
- 0.259744 2 3 cbr 960 ------- 2 2.0 3.0 208 208
r 0.25976 2 3 cbr 960 ------- 2 2.0 3.0 194 194
+ 0.260512 2 3 cbr 960 ------- 2 2.0 3.0 209 209
- 0.260512 2 3 cbr 960 ------- 2 2.0 3.0 209 209
r 0.260528 2 3 cbr 960 ------- 2 2.0 3.0 195 195
+ 0.26128 2 3 cbr 960 ------- 2 2.0 3.0 210 210
- 0.26128 2 3 cbr 960 ------- 2 2.0 3.0 210 210
r 0.261296 2 3 cbr 960 ------- 2 2.0 3.0 196 196
+ 0.262048 2 3 cbr 960 ------- 2 2.0 3.0 211 211
- 0.262048 2 3 cbr 960 ------- 2 2.0 3.0 211 211
r 0.262064 2 3 cbr 960 ------- 2 2.0 3.0 197 197
+ 0.262816 2 3 cbr 960 ------- 2 2.0 3.0 212 212
- 0.262816 2 3 cbr 960 ------- 2 2.0 3.0 212 212
r 0.262832 2 3 cbr 960 ------- 2 2.0 3.0 198 198
+ 0.263584 2 3 cbr 960 ------- 2 2.0 3.0 213 213
- 0.263584 2 3 cbr 960 ------- 2 2.0 3.0 213 213
r 0.2636 2 3 cbr 960 ------- 2 2.0 3.0 199 199
+ 0.264352 2 3 cbr 960 ------- 2 2.0 3.0 214 214