V -t * -v 1.0a5 -a 0
A -t * -n 1 -p 0 -o 0x7fffffff -c 30 -a 1
A -t * -h 1 -m 1073741823 -s 0
c -t * -i 1 -n Blue
c -t * -i 2 -n Red
c -t * -i 3 -n Green
n -t * -a 4 -s 4 -S UP -v circle -c black -i black
n -t * -a 0 -s 0 -S UP -v circle -c black -i black
n -t * -a 5 -s 5 -S UP -v circle -c black -i black
n -t * -a 1 -s 1 -S UP -v circle -c black -i black
n -t * -a 6 -s 6 -S UP -v circle -c black -i black
n -t * -a 2 -s 2 -S UP -v circle -c black -i black
n -t * -a 3 -s 3 -S UP -v circle -c black -i black
l -t * -s 1 -d 2 -S UP -r 10000000 -D 0.01 -c black -o right-down
l -t * -s 5 -d 2 -S UP -r 10000000 -D 0.01 -c black -o right-up
l -t * -s 2 -d 3 -S UP -r 10000000 -D 0.01 -c black -o right
l -t * -s 3 -d 4 -S UP -r 10000000 -D 0.01 -c black -o right-up
l -t * -s 3 -d 6 -S UP -r 10000000 -D 0.01 -c black -o right-down
q -t * -s 3 -d 2 -a 0.5
q -t * -s 2 -d 3 -a 0.5
+ -t 0.1 -s 2 -d 3 -p cbr -e 960 -c 3 -i 0 -a 3 -x {2.0 3.0 0 ------- null}
- -t 0.1 -s 2 -d 3 -p cbr -e 960 -c 3 -i 0 -a 3 -x {2.0 3.0 0 ------- null}
h -t 0.1 -s 2 -d 3 -p cbr -e 960 -c 3 -i 0 -a 3 -x {2.0 3.0 -1 ------- null}
+ -t 0.10768 -s 2 -d 3 -p cbr -e 960 -c 3 -i 1 -a 3 -x {2.0 3.0 1 ------- null}
- -t 0.10768 -s 2 -d 3 -p cbr -e 960 -c 3 -i 1 -a 3 -x {2.0 3.0 1 ------- null}
h -t 0.10768 -s 2 -d 3 -p cbr -e 960 -c 3 -i 1 -a 3 -x {2.0 3.0 -1 ------- null}
r -t 0.110768 -s 2 -d 3 -p cbr -e 960 -c 3 -i 0 -a 3 -x {2.0 3.0 0 ------- null}
+ -t 0.11536 -s 2 -d 3 -p cbr -e 960 -c 3 -i 2 -a 3 -x {2.0 3.0 2 ------- null}
- -t 0.11536 -s 2 -d 3 -p cbr -e 960 -c 3 -i 2 -a 3 -x {2.0 3.0 2 ------- null}
h -t 0.11536 -s 2 -d 3 -p cbr -e 960 -c 3 -i 2 -a 3 -x {2.0 3.0 -1 ------- null}
r -t 0.118448 -s 2 -d 3 -p cbr -e 960 -c 3 -i 1 -a 3 -x {2.0 3.0 1 ------- null}
+ -t 0.12304 -s 2 -d 3 -p cbr -e 960 -c 3 -i 3 -a 3 -x {2.0 3.0 3 ------- null}
- -t 0.12304 -s 2 -d 3 -p cbr -e 960 -c 3 -i 3 -a 3 -x {2.0 3.0 3 ------- null}
h -t 0.12304 -s 2 -d 3 -p cbr -e 960 -c 3 -i 3 -a 3 -x {2.0 3.0 -1 ------- null}
r -t 0.126128 -s 2 -d 3 -p cbr -e 960 -c 3 -i 2 -a 3 -x {2.0 3.0 2 ------- null}
+ -t 0.13072 -s 2 -d 3 -p cbr -e 960 -c 3 -i 4 -a 3 -x {2.0 3.0 4 ------- null}
- -t 0.13072 -s 2 -d 3 -p cbr -e 960 -c 3 -i 4 -a 3 -x {2.0 3.0 4 ------- null}
h -t 0.13072 -s 2 -d 3 -p cbr -e 960 -c 3 -i 4 -a 3 -x {2.0 3.0 -1 ------- null}
r -t 0.133808 -s 2 -d 3 -p cbr -e 960 -c 3 -i 3 -a 3 -x {2.0 3.0 3 ------- null}
+ -t 0.1384 -s 2 -d 3 -p cbr -e 960 -c 3 -i 5 -a 3 -x {2.0 3.0 5 ------- null}
- -t 0.1384 -s 2 -d 3 -p cbr -e 960 -c 3 -i 5 -a 3 -x {2.0 3.0 5 ------- null}
h -t 0.1384 -s 2 -d 3 -p cbr -e 960 -c 3 -i 5 -a 3 -x {2.0 3.0 -1 ------- null}
r -t 0.141488 -s 2 -d 3 -p cbr -e 960 -c 3 -i 4 -a 3 -x {2.0 3.0 4 ------- null}
+ -t 0.14608 -s 2 -d 3 -p cbr -e 960 -c 3 -i 6 -a 3 -x {2.0 3.0 6 ------- null}
- -t 0.14608 -s 2 -d 3 -p cbr -e 960 -c 3 -i 6 -a 3 -x {2.0 3.0 6 ------- null}
h -t 0.14608 -s 2 -d 3 -p cbr -e 960 -c 3 -i 6 -a 3 -x {2.0 3.0 -1 ------- null}
r -t 0.149168 -s 2 -d 3 -p cbr -e 960 -c 3 -i 5 -a 3 -x {2.0 3.0 5 ------- null}
+ -t 0.15376 -s 2 -d 3 -p cbr -e 960 -c 3 -i 7 -a 3 -x {2.0 3.0 7 ------- null}
- -t 0.15376 -s 2 -d 3 -p cbr -e 960 -c 3 -i 7 -a 3 -x {2.0 3.0 7 ------- null}
h -t 0.15376 -s 2 -d 3 -p cbr -e 960 -c 3 -i 7 -a 3 -x {2.0 3.0 -1 ------- null}
r -t 0.156848 -s 2 -d 3 -p cbr -e 960 -c 3 -i 6 -a 3 -x {2.0 3.0 6 ------- null}
+ -t 0.16144 -s 2 -d 3 -p cbr -e 960 -c 3 -i 8 -a 3 -x {2.0 3.0 8 ------- null}
- -t 0.16144 -s 2 -d 3 -p cbr -e 960 -c 3 -i 8 -a 3 -x {2.0 3.0 8 ------- null}
h -t 0.16144 -s 2 -d 3 -p cbr -e 960 -c 3 -i 8 -a 3 -x {2.0 3.0 -1 ------- null}
r -t 0.164528 -s 2 -d 3 -p cbr -e 960 -c 3 -i 7 -a 3 -x {2.0 3.0 7 ------- null}
+ -t 0.16912 -s 2 -d 3 -p cbr -e 960 -c 3 -i 9 -a 3 -x {2.0 3.0 9 ------- null}
- -t 0.16912 -s 2 -d 3 -p cbr -e 960 -c 3 -i 9 -a 3 -x {2.0 3.0 9 ------- null}
h -t 0.16912 -s 2 -d 3 -p cbr -e 960 -c 3 -i 9 -a 3 -x {2.0 3.0 -1 ------- null}
r -t 0.172208 -s 2 -d 3 -p cbr -e 960 -c 3 -i 8 -a 3 -x {2.0 3.0 8 ------- null}
+ -t 0.1768 -s 2 -d 3 -p cbr -e 960 -c 3 -i 10 -a 3 -x {2.0 3.0 10 ------- null}
- -t 0.1768 -s 2 -d 3 -p cbr -e 960 -c 3 -i 10 -a 3 -x {2.0 3.0 10 ------- null}
h -t 0.1768 -s 2 -d 3 -p cbr -e 960 -c 3 -i 10 -a 3 -x {2.0 3.0 -1 ------- null}
r -t 0.179888 -s 2 -d 3 -p cbr -e 960 -c 3 -i 9 -a 3 -x {2.0 3.0 9 ------- null}
+ -t 0.18448 -s 2 -d 3 -p cbr -e 960 -c 3 -i 11 -a 3 -x {2.0 3.0 11 ------- null}
- -t 0.18448 -s 2 -d 3 -p cbr -e 960 -c 3 -i 11 -a 3 -x {2.0 3.0 11 ------- null}
h -t 0.18448 -s 2 -d 3 -p cbr -e 960 -c 3 -i 11 -a 3 -x {2.0 3.0 -1 ------- null}
r -t 0.187568 -s 2 -d 3 -p cbr -e 960 -c 3 -i 10 -a 3 -x {2.0 3.0 10 ------- null}
+ -t 0.19216 -s 2 -d 3 -p cbr -e 960 -c 3 -i 12 -a 3 -x {2.0 3.0 12 ------- null}
- -t 0.19216 -s 2 -d 3 -p cbr -e 960 -c 3 -i 12 -a 3 -x {2.0 3.0 12 ------- null}
h -t 0.19216 -s 2 -d 3 -p cbr -e 960 -c 3 -i 12 -a 3 -x {2.0 3.0 -1 ------- null}
r -t 0.195248 -s 2 -d 3 -p cbr -e 960 -c 3 -i 11 -a 3 -x {2.0 3.0 11 ------- null}
+ -t 0.19984 -s 2 -d 3 -p cbr -e 960 -c 3 -i 13 -a 3 -x {2.0 3.0 13 ------- null}
- -t 0.19984 -s 2 -d 3 -p cbr -e 960 -c 3 -i 13 -a 3 -x {2.0 3.0 13 ------- null}
h -t 0.19984 -s 2 -d 3 -p cbr -e 960 -c 3 -i 13 -a 3 -x {2.0 3.0 -1 ------- null}
r -t 0.202928 -s 2 -d 3 -p cbr -e 960 -c 3 -i 12 -a 3 -x {2.0 3.0 12 ------- null}
+ -t 0.20752 -s 2 -d 3 -p cbr -e 960 -c 3 -i 14 -a 3 -x {2.0 3.0 14 ------- null}
- -t 0.20752 -s 2 -d 3 -p cbr -e 960 -c 3 -i 14 -a 3 -x {2.0 3.0 14 ------- null}
h -t 0.20752 -s 2 -d 3 -p cbr -e 960 -c 3 -i 14 -a 3 -x {2.0 3.0 -1 ------- null}
r -t 0.210608 -s 2 -d 3 -p cbr -e 960 -c 3 -i 13 -a 3 -x {2.0 3.0 13 ------- null}
+ -t 0.2152 -s 2 -d 3 -p cbr -e 960 -c 3 -i 15 -a 3 -x {2.0 3.0 15 ------- null}
- -t 0.2152 -s 2 -d 3 -p cbr -e 960 -c 3 -i 15 -a 3 -x {2.0 3.0 15 ------- null}
h -t 0.2152 -s 2 -d 3 -p cbr -e 960 -c 3 -i 15 -a 3 -x {2.0 3.0 -1 ------- null}
r -t 0.218288 -s 2 -d 3 -p cbr -e 960 -c 3 -i 14 -a 3 -x {2.0 3.0 14 ------- null}
+ -t 0.22288 -s 2 -d 3 -p cbr -e 960 -c 3 -i 16 -a 3 -x {2.0 3.0 16 ------- null}
- -t 0.22288 -s 2 -d 3 -p cbr -e 960 -c 3 -i 16 -a 3 -x {2.0 3.0 16 ------- null}
h -t 0.22288 -s 2 -d 3 -p cbr -e 960 -c 3 -i 16 -a 3 -x {2.0 3.0 -1 ------- null}
r -t 0.225968 -s 2 -d 3 -p cbr -e 960 -c 3 -i 15 -a 3 -x {2.0 3.0 15 ------- null}
+ -t 0.23056 -s 2 -d 3 -p cbr -e 960 -c 3 -i 17 -a 3 -x {2.0 3.0 17 ------- null}
- -t 0.23056 -s 2 -d 3 -p cbr -e 960 -c 3 -i 17 -a 3 -x {2.0 3.0 17 ------- null}
h -t 0.23056 -s 2 -d 3 -p cbr -e 960 -c 3 -i 17 -a 3 -x {2.0 3.0 -1 ------- null}
r -t 0.233648 -s 2 -d 3 -p cbr -e 960 -c 3 -i 16 -a 3 -x {2.0 3.0 16 ------- null}
+ -t 0.23824 -s 2 -d 3 -p cbr -e 960 -c 3 -i 18 -a 3 -x {2.0 3.0 18 ------- null}
- -t 0.23824 -s 2 -d 3 -p cbr -e 960 -c 3 -i 18 -a 3 -x {2.0 3.0 18 ------- null}
h -t 0.23824 -s 2 -d 3 -p cbr -e 960 -c 3 -i 18 -a 3 -x {2.0 3.0 -1 ------- null}
r -t 0.241328 -s 2 -d 3 -p cbr -e 960 -c 3 -i 17 -a 3 -x {2.0 3.0 17 ------- null}
+ -t 0.24592 -s 2 -d 3 -p cbr -e 960 -c 3 -i 19 -a 3 -x {2.0 3.0 19 ------- null}
- -t 0.24592 -s 2 -d 3 -p cbr -e 960 -c 3 -i 19 -a 3 -x {2.0 3.0 19 ------- null}
h -t 0.24592 -s 2 -d 3 -p cbr -e 960 -c 3 -i 19 -a 3 -x {2.0 3.0 -1 ------- null}
r -t 0.249008 -s 2 -d 3 -p cbr -e 960 -c 3 -i 18 -a 3 -x {2.0 3.0 18 ------- null}
+ -t 0.2536 -s 2 -d 3 -p cbr -e 960 -c 3 -i 20 -a 3 -x {2.0 3.0 20 ------- null}
- -t 0.2536 -s 2 -d 3 -p cbr -e 960 -c 3 -i 20 -a 3 -x {2.0 3.0 20 ------- null}
h -t 0.2536 -s 2 -d 3 -p cbr -e 960 -c 3 -i 20 -a 3 -x {2.0 3.0 -1 ------- null}
r -t 0.256688 -s 2 -d 3 -p cbr -e 960 -c 3 -i 19 -a 3 -x {2.0 3.0 19 ------- null}
+ -t 0.26128 -s 2 -d 3 -p cbr -e 960 -c 3 -i 21 -a 3 -x {2.0 3.0 21 ------- null}
- -t 0.26128 -s 2 -d 3 -p cbr -e 960 -c 3 -i 21 -a 3 -x {2.0 3.0 21 ------- null}
h -t 0.26128 -s 2 -d 3 -p cbr -e 960 -c 3 -i 21 -a 3 -x {2.0 3.0 -1 ------- null}
r -t 0.264368 -s 2 -d 3 -p cbr -e 960 -c 3 -i 20 -a 3 -x {2.0 3.0 20 ------- null}
+ -t 0.26896 -s 2 -d 3 -p cbr -e 960 -c 3 -i 22 -a 3 -x {2.0 3.0 22 ------- null}
- -t 0.26896 -s 2 -d 3 -p cbr -e 960 -c 3 -i 22 -a 3 -x {2.0 3.0 22 ------- null}
h -t 0.26896 -s 2 -d 3 -p cbr -e 960 -c 3 -i 22 -a 3 -x {2.0 3.0 -1 ------- null}
r -t 0.272048 -s 2 -d 3 -p cbr -e 960 -c 3 -i 21 -a 3 -x {2.0 3.0 21 ------- null}
+ -t 0.27664 -s 2 -d 3 -p cbr -e 960 -c 3 -i 23 -a 3 -x {2.0 3.0 23 ------- null}
- -t 0.27664 -s 2 -d 3 -p cbr -e 960 -c 3 -i 23 -a 3 -x {2.0 3.0 23 ------- null}
h -t 0.27664 -s 2 -d 3 -p cbr -e 960 -c 3 -i 23 -a 3 -x {2.0 3.0 -1 ------- null}
r -t 0.279728 -s 2 -d 3 -p cbr -e 960 -c 3 -i 22 -a 3 -x {2.0 3.0 22 ------- null}
+ -t 0.28432 -s 2 -d 3 -p cbr -e 960 -c 3 -i 24 -a 3 -x {2.0 3.0 24 ------- null}
- -t 0.28432 -s 2 -d 3 -p cbr -e 960 -c 3 -i 24 -a 3 -x {2.0 3.0 24 ------- null}
h -t 0.28432 -s 2 -d 3 -p cbr -e 960 -c 3 -i 24 -a 3 -x {2.0 3.0 -1 ------- null}
r -t 0.287408 -s 2 -d 3 -p cbr -e 960 -c 3 -i 23 -a 3 -x {2.0 3.0 23 ------- null}
+ -t 0.292 -s 2 -d 3 -p cbr -e 960 -c 3 -i 25 -a 3 -x {2.0 3.0 25 ------- null}
- -t 0.292 -s 2 -d 3 -p cbr -e 960 -c 3 -i 25 -a 3 -x {2.0 3.0 25 ------- null}
h -t 0.292 -s 2 -d 3 -p cbr -e 960 -c 3 -i 25 -a 3 -x {2.0 3.0 -1 ------- null}
r -t 0.295088 -s 2 -d 3 -p cbr -e 960 -c 3 -i 24 -a 3 -x {2.0 3.0 24 ------- null}
+ -t 0.29968 -s 2 -d 3 -p cbr -e 960 -c 3 -i 26 -a 3 -x {2.0 3.0 26 ------- null}
- -t 0.29968 -s 2 -d 3 -p cbr -e 960 -c 3 -i 26 -a 3 -x {2.0 3.0 26 ------- null}
h -t 0.29968 -s 2 -d 3 -p cbr -e 960 -c 3 -i 26 -a 3 -x {2.0 3.0 -1 ------- null}
r -t 0.302768 -s 2 -d 3 -p cbr -e 960 -c 3 -i 25 -a 3 -x {2.0 3.0 25 ------- null}
+ -t 0.30736 -s 2 -d 3 -p cbr -e 960 -c 3 -i 27 -a 3 -x {2.0 3.0 27 ------- null}
- -t 0.30736 -s 2 -d 3 -p cbr -e 960 -c 3 -i 27 -a 3 -x {2.0 3.0 27 ------- null}
h -t 0.30736 -s 2 -d 3 -p cbr -e 960 -c 3 -i 27 -a 3 -x {2.0 3.0 -1 ------- null}
r -t 0.310448 -s 2 -d 3 -p cbr -e 960 -c 3 -i 26 -a 3 -x {2.0 3.0 26 ------- null}
+ -t 0.31504 -s 2 -d 3 -p cbr -e 960 -c 3 -i 28 -a 3 -x {2.0 3.0 28 ------- null}
- -t 0.31504 -s 2 -d 3 -p cbr -e 960 -c 3 -i 28 -a 3 -x {2.0 3.0 28 ------- null}
h -t 0.31504 -s 2 -d 3 -p cbr -e 960 -c 3 -i 28 -a 3 -x {2.0 3.0 -1 ------- null}
r -t 0.318128 -s 2 -d 3 -p cbr -e 960 -c 3 -i 27 -a 3 -x {2.0 3.0 27 ------- null}
+ -t 0.32272 -s 2 -d 3 -p cbr -e 960 -c 3 -i 29 -a 3 -x {2.0 3.0 29 ------- null}
- -t 0.32272 -s 2 -d 3 -p cbr -e 960 -c 3 -i 29 -a 3 -x {2.0 3.0 29 ------- null}
h -t 0.32272 -s 2 -d 3 -p cbr -e 960 -c 3 -i 29 -a 3 -x {2.0 3.0 -1 ------- null}
r -t 0.325808 -s 2 -d 3 -p cbr -e 960 -c 3 -i 28 -a 3 -x {2.0 3.0 28 ------- null}
+ -t 0.3304 -s 2 -d 3 -p cbr -e 960 -c 3 -i 30 -a 3 -x {2.0 3.0 30 ------- null}
- -t 0.3304 -s 2 -d 3 -p cbr -e 960 -c 3 -i 30 -a 3 -x {2.0 3.0 30 ------- null}
h -t 0.3304 -s 2 -d 3 -p cbr -e 960 -c 3 -i 30 -a 3 -x {2.0 3.0 -1 ------- null}
r -t 0.333488 -s 2 -d 3 -p cbr -e 960 -c 3 -i 29 -a 3 -x {2.0 3.0 29 ------- null}
+ -t 0.33808 -s 2 -d 3 -p cbr -e 960 -c 3 -i 31 -a 3 -x {2.0 3.0 31 ------- null}
- -t 0.33808 -s 2 -d 3 -p cbr -e 960 -c 3 -i 31 -a 3 -x {2.0 3.0 31 ------- null}
h -t 0.33808 -s 2 -d 3 -p cbr -e 960 -c 3 -i 31 -a 3 -x {2.0 3.0 -1 ------- null}
r -t 0.341168 -s 2 -d 3 -p cbr -e 960 -c 3 -i 30 -a 3 -x {2.0 3.0 30 ------- null}
+ -t 0.34576 -s 2 -d 3 -p cbr -e 960 -c 3 -i 32 -a 3 -x {2.0 3.0 32 ------- null}
- -t 0.34576 -s 2 -d 3 -p cbr -e 960 -c 3 -i 32 -a 3 -x {2.0 3.0 32 ------- null}
h -t 0.34576 -s 2 -d 3 -p cbr -e 960 -c 3 -i 32 -a 3 -x {2.0 3.0 -1 ------- null}
r -t 0.348848 -s 2 -d 3 -p cbr -e 960 -c 3 -i 31 -a 3 -x {2.0 3.0 31 ------- null}
+ -t 0.35344 -s 2 -d 3 -p cbr -e 960 -c 3 -i 33 -a 3 -x {2.0 3.0 33 ------- null}
- -t 0.35344 -s 2 -d 3 -p cbr -e 960 -c 3 -i 33 -a 3 -x {2.0 3.0 33 ------- null}
h -t 0.35344 -s 2 -d 3 -p cbr -e 960 -c 3 -i 33 -a 3 -x {2.0 3.0 -1 ------- null}
r -t 0.356528 -s 2 -d 3 -p cbr -e 960 -c 3 -i 32 -a 3 -x {2.0 3.0 32 ------- null}
+ -t 0.36112 -s 2 -d 3 -p cbr -e 960 -c 3 -i 34 -a 3 -x {2.0 3.0 34 ------- null}
- -t 0.36112 -s 2 -d 3 -p cbr -e 960 -c 3 -i 34 -a 3 -x {2.0 3.0 34 ------- null}
h -t 0.36112 -s 2 -d 3 -p cbr -e 960 -c 3 -i 34 -a 3 -x {2.0 3.0 -1 ------- null}
r -t 0.364208 -s 2 -d 3 -p cbr -e 960 -c 3 -i 33 -a 3 -x {2.0 3.0 33 ------- null}
+ -t 0.3688 -s 2 -d 3 -p cbr -e 960 -c 3 -i 35 -a 3 -x {2.0 3.0 35 ------- null}
- -t 0.3688 -s 2 -d 3 -p cbr -e 960 -c 3 -i 35 -a 3 -x {2.0 3.0 35 ------- null}
h -t 0.3688 -s 2 -d 3 -p cbr -e 960 -c 3 -i 35 -a 3 -x {2.0 3.0 -1 ------- null}
r -t 0.371888 -s 2 -d 3 -p cbr -e 960 -c 3 -i 34 -a 3 -x {2.0 3.0 34 ------- null}
+ -t 0.37648 -s 2 -d 3 -p cbr -e 960 -c 3 -i 36 -a 3 -x {2.0 3.0 36 ------- null}
- -t 0.37648 -s 2 -d 3 -p cbr -e 960 -c 3 -i 36 -a 3 -x {2.0 3.0 36 ------- null}
h -t 0.37648 -s 2 -d 3 -p cbr -e 960 -c 3 -i 36 -a 3 -x {2.0 3.0 -1 ------- null}
r -t 0.379568 -s 2 -d 3 -p cbr -e 960 -c 3 -i 35 -a 3 -x {2.0 3.0 35 ------- null}
+ -t 0.38416 -s 2 -d 3 -p cbr -e 960 -c 3 -i 37 -a 3 -x {2.0 3.0 37 ------- null}
- -t 0.38416 -s 2 -d 3 -p cbr -e 960 -c 3 -i 37 -a 3 -x {2.0 3.0 37 ------- null}
h -t 0.38416 -s 2 -d 3 -p cbr -e 960 -c 3 -i 37 -a 3 -x {2.0 3.0 -1 ------- null}
r -t 0.387248 -s 2 -d 3 -p cbr -e 960 -c 3 -i 36 -a 3 -x {2.0 3.0 36 ------- null}
+ -t 0.39184 -s 2 -d 3 -p cbr -e 960 -c 3 -i 38 -a 3 -x {2.0 3.0 38 ------- null}
- -t 0.39184 -s 2 -d 3 -p cbr -e 960 -c 3 -i 38 -a 3 -x {2.0 3.0 38 ------- null}
h -t 0.39184 -s 2 -d 3 -p cbr -e 960 -c 3 -i 38 -a 3 -x {2.0 3.0 -1 ------- null}
r -t 0.394928 -s 2 -d 3 -p cbr -e 960 -c 3 -i 37 -a 3 -x {2.0 3.0 37 ------- null}
+ -t 0.39952 -s 2 -d 3 -p cbr -e 960 -c 3 -i 39 -a 3 -x {2.0 3.0 39 ------- null}
- -t 0.39952 -s 2 -d 3 -p cbr -e 960 -c 3 -i 39 -a 3 -x {2.0 3.0 39 ------- null}
h -t 0.39952 -s 2 -d 3 -p cbr -e 960 -c 3 -i 39 -a 3 -x {2.0 3.0 -1 ------- null}
r -t 0.402608 -s 2 -d 3 -p cbr -e 960 -c 3 -i 38 -a 3 -x {2.0 3.0 38 ------- null}
+ -t 0.4072 -s 2 -d 3 -p cbr -e 960 -c 3 -i 40 -a 3 -x {2.0 3.0 40 ------- null}
- -t 0.4072 -s 2 -d 3 -p cbr -e 960 -c 3 -i 40 -a 3 -x {2.0 3.0 40 ------- null}
h -t 0.4072 -s 2 -d 3 -p cbr -e 960 -c 3 -i 40 -a 3 -x {2.0 3.0 -1 ------- null}
r -t 0.410288 -s 2 -d 3 -p cbr -e 960 -c 3 -i 39 -a 3 -x {2.0 3.0 39 ------- null}
+ -t 0.41488 -s 2 -d 3 -p cbr -e 960 -c 3 -i 41 -a 3 -x {2.0 3.0 41 ------- null}
- -t 0.41488 -s 2 -d 3 -p cbr -e 960 -c 3 -i 41 -a 3 -x {2.0 3.0 41 ------- null}
h -t 0.41488 -s 2 -d 3 -p cbr -e 960 -c 3 -i 41 -a 3 -x {2.0 3.0 -1 ------- null}
r -t 0.417968 -s 2 -d 3 -p cbr -e 960 -c 3 -i 40 -a 3 -x {2.0 3.0 40 ------- null}
+ -t 0.42256 -s 2 -d 3 -p cbr -e 960 -c 3 -i 42 -a 3 -x {2.0 3.0 42 ------- null}
- -t 0.42256 -s 2 -d 3 -p cbr -e 960 -c 3 -i 42 -a 3 -x {2.0 3.0 42 ------- null}
h -t 0.42256 -s 2 -d 3 -p cbr -e 960 -c 3 -i 42 -a 3 -x {2.0 3.0 -1 ------- null}
r -t 0.425648 -s 2 -d 3 -p cbr -e 960 -c 3 -i 41 -a 3 -x {2.0 3.0 41 ------- null}
+ -t 0.43024 -s 2 -d 3 -p cbr -e 960 -c 3 -i 43 -a 3 -x {2.0 3.0 43 ------- null}
- -t 0.43024 -s 2 -d 3 -p cbr -e 960 -c 3 -i 43 -a 3 -x {2.0 3.0 43 ------- null}
h -t 0.43024 -s 2 -d 3 -p cbr -e 960 -c 3 -i 43 -a 3 -x {2.0 3.0 -1 ------- null}
r -t 0.433328 -s 2 -d 3 -p cbr -e 960 -c 3 -i 42 -a 3 -x {2.0 3.0 42 ------- null}
+ -t 0.43792 -s 2 -d 3 -p cbr -e 960 -c 3 -i 44 -a 3 -x {2.0 3.0 44 ------- null}
- -t 0.43792 -s 2 -d 3 -p cbr -e 960 -c 3 -i 44 -a 3 -x {2.0 3.0 44 ------- null}
h -t 0.43792 -s 2 -d 3 -p cbr -e 960 -c 3 -i 44 -a 3 -x {2.0 3.0 -1 ------- null}
r -t 0.441008 -s 2 -d 3 -p cbr -e 960 -c 3 -i 43 -a 3 -x {2.0 3.0 43 ------- null}
+ -t 0.4456 -s 2 -d 3 -p cbr -e 960 -c 3 -i 45 -a 3 -x {2.0 3.0 45 ------- null}
- -t 0.4456 -s 2 -d 3 -p cbr -e 960 -c 3 -i 45 -a 3 -x {2.0 3.0 45 ------- null}
h -t 0.4456 -s 2 -d 3 -p cbr -e 960 -c 3 -i 45 -a 3 -x {2.0 3.0 -1 ------- null}
r -t 0.448688 -s 2 -d 3 -p cbr -e 960 -c 3 -i 44 -a 3 -x {2.0 3.0 44 ------- null}
+ -t 0.45328 -s 2 -d 3 -p cbr -e 960 -c 3 -i 46 -a 3 -x {2.0 3.0 46 ------- null}
- -t 0.45328 -s 2 -d 3 -p cbr -e 960 -c 3 -i 46 -a 3 -x {2.0 3.0 46 ------- null}
h -t 0.45328 -s 2 -d 3 -p cbr -e 960 -c 3 -i 46 -a 3 -x {2.0 3.0 -1 ------- null}
r -t 0.456368 -s 2 -d 3 -p cbr -e 960 -c 3 -i 45 -a 3 -x {2.0 3.0 45 ------- null}
+ -t 0.46096 -s 2 -d 3 -p cbr -e 960 -c 3 -i 47 -a 3 -x {2.0 3.0 47 ------- null}
- -t 0.46096 -s 2 -d 3 -p cbr -e 960 -c 3 -i 47 -a 3 -x {2.0 3.0 47 ------- null}
h -t 0.46096 -s 2 -d 3 -p cbr -e 960 -c 3 -i 47 -a 3 -x {2.0 3.0 -1 ------- null}
r -t 0.464048 -s 2 -d 3 -p cbr -e 960 -c 3 -i 46 -a 3 -x {2.0 3.0 46 ------- null}
+ -t 0.468640000000001 -s 2 -d 3 -p cbr -e 960 -c 3 -i 48 -a 3 -x {2.0 3.0 48 ------- null}
- -t 0.468640000000001 -s 2 -d 3 -p cbr -e 960 -c 3 -i 48 -a 3 -x {2.0 3.0 48 ------- null}
h -t 0.468640000000001 -s 2 -d 3 -p cbr -e 960 -c 3 -i 48 -a 3 -x {2.0 3.0 -1 ------- null}
r -t 0.471728 -s 2 -d 3 -p cbr -e 960 -c 3 -i 47 -a 3 -x {2.0 3.0 47 ------- null}
+ -t 0.476320000000001 -s 2 -d 3 -p cbr -e 960 -c 3 -i 49 -a 3 -x {2.0 3.0 49 ------- null}
- -t 0.476320000000001 -s 2 -d 3 -p cbr -e 960 -c 3 -i 49 -a 3 -x {2.0 3.0 49 ------- null}
h -t 0.476320000000001 -s 2 -d 3 -p cbr -e 960 -c 3 -i 49 -a 3 -x {2.0 3.0 -1 ------- null}
r -t 0.479408000000001 -s 2 -d 3 -p cbr -e 960 -c 3 -i 48 -a 3 -x {2.0 3.0 48 ------- null}
+ -t 0.484000000000001 -s 2 -d 3 -p cbr -e 960 -c 3 -i 50 -a 3 -x {2.0 3.0 50 ------- null}
- -t 0.484000000000001 -s 2 -d 3 -p cbr -e 960 -c 3 -i 50 -a 3 -x {2.0 3.0 50 ------- null}
h -t 0.484000000000001 -s 2 -d 3 -p cbr -e 960 -c 3 -i 50 -a 3 -x {2.0 3.0 -1 ------- null}
r -t 0.487088000000001 -s 2 -d 3 -p cbr -e 960 -c 3 -i 49 -a 3 -x {2.0 3.0 49 ------- null}
+ -t 0.491680000000001 -s 2 -d 3 -p cbr -e 960 -c 3 -i 51 -a 3 -x {2.0 3.0 51 ------- null}
- -t 0.491680000000001 -s 2 -d 3 -p cbr -e 960 -c 3 -i 51 -a 3 -x {2.0 3.0 51 ------- null}
h -t 0.491680000000001 -s 2 -d 3 -p cbr -e 960 -c 3 -i 51 -a 3 -x {2.0 3.0 -1 ------- null}
r -t 0.494768000000001 -s 2 -d 3 -p cbr -e 960 -c 3 -i 50 -a 3 -x {2.0 3.0 50 ------- null}
+ -t 0.499360000000001 -s 2 -d 3 -p cbr -e 960 -c 3 -i 52 -a 3 -x {2.0 3.0 52 ------- null}
- -t 0.499360000000001 -s 2 -d 3 -p cbr -e 960 -c 3 -i 52 -a 3 -x {2.0 3.0 52 ------- null}
h -t 0.499360000000001 -s 2 -d 3 -p cbr -e 960 -c 3 -i 52 -a 3 -x {2.0 3.0 -1 ------- null}
r -t 0.502448000000001 -s 2 -d 3 -p cbr -e 960 -c 3 -i 51 -a 3 -x {2.0 3.0 51 ------- null}
+ -t 0.507040000000001 -s 2 -d 3 -p cbr -e 960 -c 3 -i 53 -a 3 -x {2.0 3.0 53 ------- null}
- -t 0.507040000000001 -s 2 -d 3 -p cbr -e 960 -c 3 -i 53 -a 3 -x {2.0 3.0 53 ------- null}
h -t 0.507040000000001 -s 2 -d 3 -p cbr -e 960 -c 3 -i 53 -a 3 -x {2.0 3.0 -1 ------- null}
r -t 0.510128000000001 -s 2 -d 3 -p cbr -e 960 -c 3 -i 52 -a 3 -x {2.0 3.0 52 ------- null}
+ -t 0.514720000000001 -s 2 -d 3 -p cbr -e 960 -c 3 -i 54 -a 3 -x {2.0 3.0 54 ------- null}
- -t 0.514720000000001 -s 2 -d 3 -p cbr -e 960 -c 3 -i 54 -a 3 -x {2.0 3.0 54 ------- null}
h -t 0.514720000000001 -s 2 -d 3 -p cbr -e 960 -c 3 -i 54 -a 3 -x {2.0 3.0 -1 ------- null}
r -t 0.517808000000001 -s 2 -d 3 -p cbr -e 960 -c 3 -i 53 -a 3 -x {2.0 3.0 53 ------- null}
+ -t 0.522400000000001 -s 2 -d 3 -p cbr -e 960 -c 3 -i 55 -a 3 -x {2.0 3.0 55 ------- null}
- -t 0.522400000000001 -s 2 -d 3 -p cbr -e 960 -c 3 -i 55 -a 3 -x {2.0 3.0 55 ------- null}
h -t 0.522400000000001 -s 2 -d 3 -p cbr -e 960 -c 3 -i 55 -a 3 -x {2.0 3.0 -1 ------- null}
r -t 0.525488000000001 -s 2 -d 3 -p cbr -e 960 -c 3 -i 54 -a 3 -x {2.0 3.0 54 ------- null}
+ -t 0.530080000000001 -s 2 -d 3 -p cbr -e 960 -c 3 -i 56 -a 3 -x {2.0 3.0 56 ------- null}
- -t 0.530080000000001 -s 2 -d 3 -p cbr -e 960 -c 3 -i 56 -a 3 -x {2.0 3.0 56 ------- null}
h -t 0.530080000000001 -s 2 -d 3 -p cbr -e 960 -c 3 -i 56 -a 3 -x {2.0 3.0 -1 ------- null}
r -t 0.533168000000001 -s 2 -d 3 -p cbr -e 960 -c 3 -i 55 -a 3 -x {2.0 3.0 55 ------- null}
+ -t 0.537760000000001 -s 2 -d 3 -p cbr -e 960 -c 3 -i 57 -a 3 -x {2.0 3.0 57 ------- null}
- -t 0.537760000000001 -s 2 -d 3 -p cbr -e 960 -c 3 -i 57 -a 3 -x {2.0 3.0 57 ------- null}
h -t 0.537760000000001 -s 2 -d 3 -p cbr -e 960 -c 3 -i 57 -a 3 -x {2.0 3.0 -1 ------- null}
r -t 0.540848000000001 -s 2 -d 3 -p cbr -e 960 -c 3 -i 56 -a 3 -x {2.0 3.0 56 ------- null}
+ -t 0.545440000000001 -s 2 -d 3 -p cbr -e 960 -c 3 -i 58 -a 3 -x {2.0 3.0 58 ------- null}
- -t 0.545440000000001 -s 2 -d 3 -p cbr -e 960 -c 3 -i 58 -a 3 -x {2.0 3.0 58 ------- null}
h -t 0.545440000000001 -s 2 -d 3 -p cbr -e 960 -c 3 -i 58 -a 3 -x {2.0 3.0 -1 ------- null}
r -t 0.548528000000001 -s 2 -d 3 -p cbr -e 960 -c 3 -i 57 -a 3 -x {2.0 3.0 57 ------- null}
+ -t 0.553120000000001 -s 2 -d 3 -p cbr -e 960 -c 3 -i 59 -a 3 -x {2.0 3.0 59 ------- null}
- -t 0.553120000000001 -s 2 -d 3 -p cbr -e 960 -c 3 -i 59 -a 3 -x {2.0 3.0 59 ------- null}
h -t 0.553120000000001 -s 2 -d 3 -p cbr -e 960 -c 3 -i 59 -a 3 -x {2.0 3.0 -1 ------- null}
r -t 0.556208000000001 -s 2 -d 3 -p cbr -e 960 -c 3 -i 58 -a 3 -x {2.0 3.0 58 ------- null}
+ -t 0.560800000000001 -s 2 -d 3 -p cbr -e 960 -c 3 -i 60 -a 3 -x {2.0 3.0 60 ------- null}
- -t 0.560800000000001 -s 2 -d 3 -p cbr -e 960 -c 3 -i 60 -a 3 -x {2.0 3.0 60 ------- null}
h -t 0.560800000000001 -s 2 -d 3 -p cbr -e 960 -c 3 -i 60 -a 3 -x {2.0 3.0 -1 ------- null}
r -t 0.563888000000001 -s 2 -d 3 -p cbr -e 960 -c 3 -i 59 -a 3 -x {2.0 3.0 59 ------- null}
+ -t 0.568480000000001 -s 2 -d 3 -p cbr -e 960 -c 3 -i 61 -a 3 -x {2.0 3.0 61 ------- null}
- -t 0.568480000000001 -s 2 -d 3 -p cbr -e 960 -c 3 -i 61 -a 3 -x {2.0 3.0 61 ------- null}
h -t 0.568480000000001 -s 2 -d 3 -p cbr -e 960 -c 3 -i 61 -a 3 -x {2.0 3.0 -1 ------- null}
r -t 0.571568000000001 -s 2 -d 3 -p cbr -e 960 -c 3 -i 60 -a 3 -x {2.0 3.0 60 ------- null}
+ -t 0.576160000000001 -s 2 -d 3 -p cbr -e 960 -c 3 -i 62 -a 3 -x {2.0 3.0 62 ------- null}
- -t 0.576160000000001 -s 2 -d 3 -p cbr -e 960 -c 3 -i 62 -a 3 -x {2.0 3.0 62 ------- null}
h -t 0.576160000000001 -s 2 -d 3 -p cbr -e 960 -c 3 -i 62 -a 3 -x {2.0 3.0 -1 ------- null}
r -t 0.579248000000001 -s 2 -d 3 -p cbr -e 960 -c 3 -i 61 -a 3 -x {2.0 3.0 61 ------- null}
+ -t 0.583840000000001 -s 2 -d 3 -p cbr -e 960 -c 3 -i 63 -a 3 -x {2.0 3.0 63 ------- null}
- -t 0.583840000000001 -s 2 -d 3 -p cbr -e 960 -c 3 -i 63 -a 3 -x {2.0 3.0 63 ------- null}
h -t 0.583840000000001 -s 2 -d 3 -p cbr -e 960 -c 3 -i 63 -a 3 -x {2.0 3.0 -1 ------- null}
r -t 0.586928000000001 -s 2 -d 3 -p cbr -e 960 -c 3 -i 62 -a 3 -x {2.0 3.0 62 ------- null}
+ -t 0.591520000000001 -s 2 -d 3 -p cbr -e 960 -c 3 -i 64 -a 3 -x {2.0 3.0 64 ------- null}
- -t 0.591520000000001 -s 2 -d 3 -p cbr -e 960 -c 3 -i 64 -a 3 -x {2.0 3.0 64 ------- null}
h -t 0.591520000000001 -s 2 -d 3 -p cbr -e 960 -c 3 -i 64 -a 3 -x {2.0 3.0 -1 ------- null}
r -t 0.594608000000001 -s 2 -d 3 -p cbr -e 960 -c 3 -i 63 -a 3 -x {2.0 3.0 63 ------- null}
+ -t 0.599200000000001 -s 2 -d 3 -p cbr -e 960 -c 3 -i 65 -a 3 -x {2.0 3.0 65 ------- null}
- -t 0.599200000000001 -s 2 -d 3 -p cbr -e 960 -c 3 -i 65 -a 3 -x {2.0 3.0 65 ------- null}
h -t 0.599200000000001 -s 2 -d 3 -p cbr -e 960 -c 3 -i 65 -a 3 -x {2.0 3.0 -1 ------- null}
r -t 0.602288000000001 -s 2 -d 3 -p cbr -e 960 -c 3 -i 64 -a 3 -x {2.0 3.0 64 ------- null}
+ -t 0.606880000000001 -s 2 -d 3 -p cbr -e 960 -c 3 -i 66 -a 3 -x {2.0 3.0 66 ------- null}
- -t 0.606880000000001 -s 2 -d 3 -p cbr -e 960 -c 3 -i 66 -a 3 -x {2.0 3.0 66 ------- null}
h -t 0.606880000000001 -s 2 -d 3 -p cbr -e 960 -c 3 -i 66 -a 3 -x {2.0 3.0 -1 ------- null}
r -t 0.609968000000001 -s 2 -d 3 -p cbr -e 960 -c 3 -i 65 -a 3 -x {2.0 3.0 65 ------- null}
+ -t 0.614560000000001 -s 2 -d 3 -p cbr -e 960 -c 3 -i 67 -a 3 -x {2.0 3.0 67 ------- null}
- -t 0.614560000000001 -s 2 -d 3 -p cbr -e 960 -c 3 -i 67 -a 3 -x {2.0 3.0 67 ------- null}
h -t 0.614560000000001 -s 2 -d 3 -p cbr -e 960 -c 3 -i 67 -a 3 -x {2.0 3.0 -1 ------- null}
r -t 0.617648000000001 -s 2 -d 3 -p cbr -e 960 -c 3 -i 66 -a 3 -x {2.0 3.0 66 ------- null}
+ -t 0.622240000000001 -s 2 -d 3 -p cbr -e 960 -c 3 -i 68 -a 3 -x {2.0 3.0 68 ------- null}
- -t 0.622240000000001 -s 2 -d 3 -p cbr -e 960 -c 3 -i 68 -a 3 -x {2.0 3.0 68 ------- null}
h -t 0.622240000000001 -s 2 -d 3 -p cbr -e 960 -c 3 -i 68 -a 3 -x {2.0 3.0 -1 ------- null}
r -t 0.625328000000001 -s 2 -d 3 -p cbr -e 960 -c 3 -i 67 -a 3 -x {2.0 3.0 67 ------- null}
+ -t 0.629920000000001 -s 2 -d 3 -p cbr -e 960 -c 3 -i 69 -a 3 -x {2.0 3.0 69 ------- null}
- -t 0.629920000000001 -s 2 -d 3 -p cbr -e 960 -c 3 -i 69 -a 3 -x {2.0 3.0 69 ------- null}
h -t 0.629920000000001 -s 2 -d 3 -p cbr -e 960 -c 3 -i 69 -a 3 -x {2.0 3.0 -1 ------- null}
r -t 0.633008000000001 -s 2 -d 3 -p cbr -e 960 -c 3 -i 68 -a 3 -x {2.0 3.0 68 ------- null}
+ -t 0.637600000000001 -s 2 -d 3 -p cbr -e 960 -c 3 -i 70 -a 3 -x {2.0 3.0 70 ------- null}
- -t 0.637600000000001 -s 2 -d 3 -p cbr -e 960 -c 3 -i 70 -a 3 -x {2.0 3.0 70 ------- null}
h -t 0.637600000000001 -s 2 -d 3 -p cbr -e 960 -c 3 -i 70 -a 3 -x {2.0 3.0 -1 ------- null}
r -t 0.640688000000001 -s 2 -d 3 -p cbr -e 960 -c 3 -i 69 -a 3 -x {2.0 3.0 69 ------- null}
+ -t 0.645280000000001 -s 2 -d 3 -p cbr -e 960 -c 3 -i 71 -a 3 -x {2.0 3.0 71 ------- null}
- -t 0.645280000000001 -s 2 -d 3 -p cbr -e 960 -c 3 -i 71 -a 3 -x {2.0 3.0 71 ------- null}
h -t 0.645280000000001 -s 2 -d 3 -p cbr -e 960 -c 3 -i 71 -a 3 -x {2.0 3.0 -1 ------- null}
r -t 0.648368000000001 -s 2 -d 3 -p cbr -e 960 -c 3 -i 70 -a 3 -x {2.0 3.0 70 ------- null}
+ -t 0.652960000000001 -s 2 -d 3 -p cbr -e 960 -c 3 -i 72 -a 3 -x {2.0 3.0 72 ------- null}
- -t 0.652960000000001 -s 2 -d 3 -p cbr -e 960 -c 3 -i 72 -a 3 -x {2.0 3.0 72 ------- null}
h -t 0.652960000000001 -s 2 -d 3 -p cbr -e 960 -c 3 -i 72 -a 3 -x {2.0 3.0 -1 ------- null}
r -t 0.656048000000001 -s 2 -d 3 -p cbr -e 960 -c 3 -i 71 -a 3 -x {2.0 3.0 71 ------- null}
+ -t 0.660640000000001 -s 2 -d 3 -p cbr -e 960 -c 3 -i 73 -a 3 -x {2.0 3.0 73 ------- null}
- -t 0.660640000000001 -s 2 -d 3 -p cbr -e 960 -c 3 -i 73 -a 3 -x {2.0 3.0 73 ------- null}
h -t 0.660640000000001 -s 2 -d 3 -p cbr -e 960 -c 3 -i 73 -a 3 -x {2.0 3.0 -1 ------- null}
r -t 0.663728000000001 -s 2 -d 3 -p cbr -e 960 -c 3 -i 72 -a 3 -x {2.0 3.0 72 ------- null}
+ -t 0.668320000000001 -s 2 -d 3 -p cbr -e 960 -c 3 -i 74 -a 3 -x {2.0 3.0 74 ------- null}
- -t 0.668320000000001 -s 2 -d 3 -p cbr -e 960 -c 3 -i 74 -a 3 -x {2.0 3.0 74 ------- null}
h -t 0.668320000000001 -s 2 -d 3 -p cbr -e 960 -c 3 -i 74 -a 3 -x {2.0 3.0 -1 ------- null}
r -t 0.671408000000001 -s 2 -d 3 -p cbr -e 960 -c 3 -i 73 -a 3 -x {2.0 3.0 73 ------- null}
+ -t 0.676000000000001 -s 2 -d 3 -p cbr -e 960 -c 3 -i 75 -a 3 -x {2.0 3.0 75 ------- null}
- -t 0.676000000000001 -s 2 -d 3 -p cbr -e 960 -c 3 -i 75 -a 3 -x {2.0 3.0 75 ------- null}
h -t 0.676000000000001 -s 2 -d 3 -p cbr -e 960 -c 3 -i 75 -a 3 -x {2.0 3.0 -1 ------- null}
r -t 0.679088000000001 -s 2 -d 3 -p cbr -e 960 -c 3 -i 74 -a 3 -x {2.0 3.0 74 ------- null}
+ -t 0.683680000000001 -s 2 -d 3 -p cbr -e 960 -c 3 -i 76 -a 3 -x {2.0 3.0 76 ------- null}
- -t 0.683680000000001 -s 2 -d 3 -p cbr -e 960 -c 3 -i 76 -a 3 -x {2.0 3.0 76 ------- null}
h -t 0.683680000000001 -s 2 -d 3 -p cbr -e 960 -c 3 -i 76 -a 3 -x {2.0 3.0 -1 ------- null}
r -t 0.686768000000001 -s 2 -d 3 -p cbr -e 960 -c 3 -i 75 -a 3 -x {2.0 3.0 75 ------- null}
+ -t 0.691360000000001 -s 2 -d 3 -p cbr -e 960 -c 3 -i 77 -a 3 -x {2.0 3.0 77 ------- null}
- -t 0.691360000000001 -s 2 -d 3 -p cbr -e 960 -c 3 -i 77 -a 3 -x {2.0 3.0 77 ------- null}
h -t 0.691360000000001 -s 2 -d 3 -p cbr -e 960 -c 3 -i 77 -a 3 -x {2.0 3.0 -1 ------- null}
r -t 0.694448000000001 -s 2 -d 3 -p cbr -e 960 -c 3 -i 76 -a 3 -x {2.0 3.0 76 ------- null}
+ -t 0.699040000000001 -s 2 -d 3 -p cbr -e 960 -c 3 -i 78 -a 3 -x {2.0 3.0 78 ------- null}
- -t 0.699040000000001 -s 2 -d 3 -p cbr -e 960 -c 3 -i 78 -a 3 -x {2.0 3.0 78 ------- null}
h -t 0.699040000000001 -s 2 -d 3 -p cbr -e 960 -c 3 -i 78 -a 3 -x {2.0 3.0 -1 ------- null}
r -t 0.702128000000001 -s 2 -d 3 -p cbr -e 960 -c 3 -i 77 -a 3 -x {2.0 3.0 77 ------- null}
+ -t 0.706720000000001 -s 2 -d 3 -p cbr -e 960 -c 3 -i 79 -a 3 -x {2.0 3.0 79 ------- null}
- -t 0.706720000000001 -s 2 -d 3 -p cbr -e 960 -c 3 -i 79 -a 3 -x {2.0 3.0 79 ------- null}
h -t 0.706720000000001 -s 2 -d 3 -p cbr -e 960 -c 3 -i 79 -a 3 -x {2.0 3.0 -1 ------- null}
r -t 0.709808000000001 -s 2 -d 3 -p cbr -e 960 -c 3 -i 78 -a 3 -x {2.0 3.0 78 ------- null}
+ -t 0.714400000000001 -s 2 -d 3 -p cbr -e 960 -c 3 -i 80 -a 3 -x {2.0 3.0 80 ------- null}
- -t 0.714400000000001 -s 2 -d 3 -p cbr -e 960 -c 3 -i 80 -a 3 -x {2.0 3.0 80 ------- null}
h -t 0.714400000000001 -s 2 -d 3 -p cbr -e 960 -c 3 -i 80 -a 3 -x {2.0 3.0 -1 ------- null}
r -t 0.717488000000001 -s 2 -d 3 -p cbr -e 960 -c 3 -i 79 -a 3 -x {2.0 3.0 79 ------- null}
+ -t 0.722080000000001 -s 2 -d 3 -p cbr -e 960 -c 3 -i 81 -a 3 -x {2.0 3.0 81 ------- null}
- -t 0.722080000000001 -s 2 -d 3 -p cbr -e 960 -c 3 -i 81 -a 3 -x {2.0 3.0 81 ------- null}
h -t 0.722080000000001 -s 2 -d 3 -p cbr -e 960 -c 3 -i 81 -a 3 -x {2.0 3.0 -1 ------- null}
r -t 0.725168000000001 -s 2 -d 3 -p cbr -e 960 -c 3 -i 80 -a 3 -x {2.0 3.0 80 ------- null}
+ -t 0.729760000000001 -s 2 -d 3 -p cbr -e 960 -c 3 -i 82 -a 3 -x {2.0 3.0 82 ------- null}
- -t 0.729760000000001 -s 2 -d 3 -p cbr -e 960 -c 3 -i 82 -a 3 -x {2.0 3.0 82 ------- null}
h -t 0.729760000000001 -s 2 -d 3 -p cbr -e 960 -c 3 -i 82 -a 3 -x {2.0 3.0 -1 ------- null}
r -t 0.732848000000001 -s 2 -d 3 -p cbr -e 960 -c 3 -i 81 -a 3 -x {2.0 3.0 81 ------- null}
+ -t 0.737440000000001 -s 2 -d 3 -p cbr -e 960 -c 3 -i 83 -a 3 -x {2.0 3.0 83 ------- null}
- -t 0.737440000000001 -s 2 -d 3 -p cbr -e 960 -c 3 -i 83 -a 3 -x {2.0 3.0 83 ------- null}
h -t 0.737440000000001 -s 2 -d 3 -p cbr -e 960 -c 3 -i 83 -a 3 -x {2.0 3.0 -1 ------- null}
r -t 0.740528000000001 -s 2 -d 3 -p cbr -e 960 -c 3 -i 82 -a 3 -x {2.0 3.0 82 ------- null}
+ -t 0.745120000000001 -s 2 -d 3 -p cbr -e 960 -c 3 -i 84 -a 3 -x {2.0 3.0 84 ------- null}
- -t 0.745120000000001 -s 2 -d 3 -p cbr -e 960 -c 3 -i 84 -a 3 -x {2.0 3.0 84 ------- null}
h -t 0.745120000000001 -s 2 -d 3 -p cbr -e 960 -c 3 -i 84 -a 3 -x {2.0 3.0 -1 ------- null}